4
	Step: 1. Total Energy: 7.734647233746381 kcal/mol.
Ar -0.18999569791093324 -0.0899882726523523 -0.1107157047404709
Ar 4.0 0.0 0.0
Ar 2.0 3.46 0.0
Ar 2.0 1.53 2.03
4
	Step: 2. Total Energy: 7.616729820413594 kcal/mol.
Ar -0.15379869293131737 -0.27727520085963886 -0.2732376087958339
Ar 4.0 0.0 0.0
Ar 2.0 3.46 0.0
Ar 2.0 1.53 2.03
4
	Step: 3. Total Energy: 7.663833688912709 kcal/mol.
Ar -0.12930066775587218 -0.19086735569067748 -0.19270761935973957
Ar 4.0 0.0 0.0
Ar 2.0 3.46 0.0
Ar 2.0 1.53 2.03
4
	Step: 5. Total Energy: 1.5193878868984076 kcal/mol.
Ar -0.12930066775587218 -0.19086735569067748 -0.19270761935973957
Ar 4.0 0.0 0.0
Ar 2.0 3.46 0.0
Ar 1.9361002066071968 1.3921917999247126 2.2128852288827123
4
	Step: 6. Total Energy: 1.4868985271584128 kcal/mol.
Ar -0.17732974750093722 -0.24727560349682612 -0.2551253303681511
Ar 4.0 0.0 0.0
Ar 2.0 3.46 0.0
Ar 1.9361002066071968 1.3921917999247126 2.2128852288827123
4
	Step: 7. Total Energy: 1.617409749231269 kcal/mol.
Ar -0.08543703282341009 -0.23278436691494583 -0.06587902477640284
Ar 4.0 0.0 0.0
Ar 2.0 3.46 0.0
Ar 1.9361002066071968 1.3921917999247126 2.2128852288827123
4
	Step: 9. Total Energy: 1.5188441446023173 kcal/mol.
Ar -0.2671072793611452 -0.3416250566543271 -0.15012383933555998
Ar 4.0 0.0 0.0
Ar 2.0 3.46 0.0
Ar 1.9361002066071968 1.3921917999247126 2.2128852288827123
4
	Step: 10. Total Energy: 1.3015116072931168 kcal/mol.
Ar -0.2671072793611452 -0.3416250566543271 -0.15012383933555998
Ar 4.146593466702108 -0.04794950998433353 -0.018635879052625814
Ar 2.0 3.46 0.0
Ar 1.9361002066071968 1.3921917999247126 2.2128852288827123
4
	Step: 11. Total Energy: 1.213457735345718 kcal/mol.
Ar -0.2671072793611452 -0.3416250566543271 -0.15012383933555998
Ar 4.094665853548861 -0.16414669767573847 -0.11184475023298047
Ar 2.0 3.46 0.0
Ar 1.9361002066071968 1.3921917999247126 2.2128852288827123
4
	Step: 12. Total Energy: 1.2295411156288005 kcal/mol.
Ar -0.2234548770943499 -0.4731695973750883 -0.058473120155420305
Ar 4.094665853548861 -0.16414669767573847 -0.11184475023298047
Ar 2.0 3.46 0.0
Ar 1.9361002066071968 1.3921917999247126 2.2128852288827123
4
	Step: 13. Total Energy: 1.9328591839012275 kcal/mol.
Ar -0.2234548770943499 -0.4731695973750883 -0.058473120155420305
Ar 4.094665853548861 -0.16414669767573847 -0.11184475023298047
Ar 2.0 3.46 0.0
Ar 1.8440793373209081 1.5623482717731998 2.2881500122560374
4
	Step: 14. Total Energy: -0.008332256259435677 kcal/mol.
Ar -0.2234548770943499 -0.4731695973750883 -0.058473120155420305
Ar 4.094665853548861 -0.16414669767573847 -0.11184475023298047
Ar 2.137140768075924 3.570399964618498 -0.10838077121435825
Ar 1.8440793373209081 1.5623482717731998 2.2881500122560374
4
	Step: 17. Total Energy: -0.013649566421542803 kcal/mol.
Ar -0.2234548770943499 -0.4731695973750883 -0.058473120155420305
Ar 4.000617920148082 -0.2654956945981451 -0.08729749656772016
Ar 2.137140768075924 3.570399964618498 -0.10838077121435825
Ar 1.8440793373209081 1.5623482717731998 2.2881500122560374
4
	Step: 19. Total Energy: 0.034302163556564236 kcal/mol.
Ar -0.2234548770943499 -0.4731695973750883 -0.058473120155420305
Ar 4.000617920148082 -0.2654956945981451 -0.08729749656772016
Ar 2.137140768075924 3.570399964618498 -0.10838077121435825
Ar 1.6804431021904256 1.3811948219430936 2.132009664396301
4
	Step: 20. Total Energy: -0.3098056218925711 kcal/mol.
Ar -0.2234548770943499 -0.4731695973750883 -0.058473120155420305
Ar 4.000617920148082 -0.2654956945981451 -0.08729749656772016
Ar 2.137140768075924 3.570399964618498 -0.10838077121435825
Ar 1.719006714483215 1.3351017466128936 2.1703650357407525
4
	Step: 21. Total Energy: -1.0195631876284033 kcal/mol.
Ar -0.2234548770943499 -0.4731695973750883 -0.058473120155420305
Ar 4.000617920148082 -0.2654956945981451 -0.08729749656772016
Ar 2.325572119121371 3.7147118455122974 -0.3037883624372304
Ar 1.719006714483215 1.3351017466128936 2.1703650357407525
4
	Step: 22. Total Energy: -1.077774772205069 kcal/mol.
Ar -0.2234548770943499 -0.4731695973750883 -0.058473120155420305
Ar 4.000617920148082 -0.2654956945981451 -0.08729749656772016
Ar 2.4330116121843495 3.6507820347247155 -0.38638831097825993
Ar 1.719006714483215 1.3351017466128936 2.1703650357407525
4
	Step: 23. Total Energy: -0.9279803708358676 kcal/mol.
Ar -0.04192850608591786 -0.32282842122381067 -0.15311749985498402
Ar 4.000617920148082 -0.2654956945981451 -0.08729749656772016
Ar 2.4330116121843495 3.6507820347247155 -0.38638831097825993
Ar 1.719006714483215 1.3351017466128936 2.1703650357407525
4
	Step: 24. Total Energy: -0.920621048199938 kcal/mol.
Ar -0.04192850608591786 -0.32282842122381067 -0.15311749985498402
Ar 4.003690589989812 -0.4229313654790631 -0.037177419141153176
Ar 2.4330116121843495 3.6507820347247155 -0.38638831097825993
Ar 1.719006714483215 1.3351017466128936 2.1703650357407525
4
	Step: 25. Total Energy: -0.853534213385655 kcal/mol.
Ar -0.04192850608591786 -0.32282842122381067 -0.15311749985498402
Ar 3.864826297409666 -0.31792704544900263 -0.02142580709330287
Ar 2.4330116121843495 3.6507820347247155 -0.38638831097825993
Ar 1.719006714483215 1.3351017466128936 2.1703650357407525
4
	Step: 26. Total Energy: -1.0466653643435635 kcal/mol.
Ar -0.0023506723018262565 -0.3273861380122315 -0.308370409726626
Ar 3.864826297409666 -0.31792704544900263 -0.02142580709330287
Ar 2.4330116121843495 3.6507820347247155 -0.38638831097825993
Ar 1.719006714483215 1.3351017466128936 2.1703650357407525
4
	Step: 27. Total Energy: -0.9353249501179048 kcal/mol.
Ar -0.0023506723018262565 -0.3273861380122315 -0.308370409726626
Ar 3.864826297409666 -0.31792704544900263 -0.02142580709330287
Ar 2.328792536319573 3.547130671703609 -0.3594455335026959
Ar 1.719006714483215 1.3351017466128936 2.1703650357407525
4
	Step: 28. Total Energy: -0.7733833913795352 kcal/mol.
Ar -0.0023506723018262565 -0.3273861380122315 -0.308370409726626
Ar 3.864826297409666 -0.31792704544900263 -0.02142580709330287
Ar 2.328792536319573 3.547130671703609 -0.3594455335026959
Ar 1.8454160158512505 1.5262955440838273 2.183447503552559
4
	Step: 29. Total Energy: -0.7310881017038959 kcal/mol.
Ar -0.0023506723018262565 -0.3273861380122315 -0.308370409726626
Ar 3.864826297409666 -0.31792704544900263 -0.02142580709330287
Ar 2.328792536319573 3.547130671703609 -0.3594455335026959
Ar 2.024155487733247 1.3923463276734784 2.1945170185198606
4
	Step: 30. Total Energy: -0.7071077418637521 kcal/mol.
Ar -0.0023506723018262565 -0.3273861380122315 -0.308370409726626
Ar 4.036391694610537 -0.21582096679468044 0.054521245746545724
Ar 2.328792536319573 3.547130671703609 -0.3594455335026959
Ar 2.024155487733247 1.3923463276734784 2.1945170185198606
4
	Step: 32. Total Energy: -0.6696544306214809 kcal/mol.
Ar -0.10318842683542309 -0.5017757794816935 -0.49995670572380246
Ar 4.036391694610537 -0.21582096679468044 0.054521245746545724
Ar 2.328792536319573 3.547130671703609 -0.3594455335026959
Ar 2.024155487733247 1.3923463276734784 2.1945170185198606
4
	Step: 33. Total Energy: -0.6374441374151416 kcal/mol.
Ar -0.10318842683542309 -0.5017757794816935 -0.49995670572380246
Ar 3.8392680302045745 -0.13268458817529882 -0.12192924750292493
Ar 2.328792536319573 3.547130671703609 -0.3594455335026959
Ar 2.024155487733247 1.3923463276734784 2.1945170185198606
4
	Step: 34. Total Energy: -0.6265596915521519 kcal/mol.
Ar 0.040665733266075504 -0.6734328395262321 -0.6047548519762044
Ar 3.8392680302045745 -0.13268458817529882 -0.12192924750292493
Ar 2.328792536319573 3.547130671703609 -0.3594455335026959
Ar 2.024155487733247 1.3923463276734784 2.1945170185198606
4
	Step: 36. Total Energy: -0.8660650196070335 kcal/mol.
Ar 0.040665733266075504 -0.6734328395262321 -0.6047548519762044
Ar 3.9531157999208757 -0.009685789068641426 -0.24576528175817386
Ar 2.328792536319573 3.547130671703609 -0.3594455335026959
Ar 2.024155487733247 1.3923463276734784 2.1945170185198606
4
	Step: 37. Total Energy: -1.2724423907357987 kcal/mol.
Ar 0.040665733266075504 -0.6734328395262321 -0.6047548519762044
Ar 3.9531157999208757 -0.009685789068641426 -0.24576528175817386
Ar 2.328792536319573 3.547130671703609 -0.3594455335026959
Ar 1.9658745143690686 1.3567872380933736 2.340051717867702
4
	Step: 38. Total Energy: -1.2527334468971965 kcal/mol.
Ar -0.13508919710311904 -0.5821474041497591 -0.48451784763152483
Ar 3.9531157999208757 -0.009685789068641426 -0.24576528175817386
Ar 2.328792536319573 3.547130671703609 -0.3594455335026959
Ar 1.9658745143690686 1.3567872380933736 2.340051717867702
4
	Step: 39. Total Energy: -1.241901527507935 kcal/mol.
Ar -0.13508919710311904 -0.5821474041497591 -0.48451784763152483
Ar 3.8291993632972003 -0.030240369935388672 -0.2770126258244122
Ar 2.328792536319573 3.547130671703609 -0.3594455335026959
Ar 1.9658745143690686 1.3567872380933736 2.340051717867702
4
	Step: 40. Total Energy: -1.2434592207621682 kcal/mol.
Ar -0.13508919710311904 -0.5821474041497591 -0.48451784763152483
Ar 3.9789937449254325 -0.20008641458567294 -0.1538037279317312
Ar 2.328792536319573 3.547130671703609 -0.3594455335026959
Ar 1.9658745143690686 1.3567872380933736 2.340051717867702
4
	Step: 41. Total Energy: -1.2348456334523996 kcal/mol.
Ar -0.31485386529316656 -0.38243441678466844 -0.35010681359954404
Ar 3.9789937449254325 -0.20008641458567294 -0.1538037279317312
Ar 2.328792536319573 3.547130671703609 -0.3594455335026959
Ar 1.9658745143690686 1.3567872380933736 2.340051717867702
4
	Step: 42. Total Energy: -1.2799952234779337 kcal/mol.
Ar -0.31485386529316656 -0.38243441678466844 -0.35010681359954404
Ar 3.845518189166998 -0.20582996440538556 -0.26830480825205855
Ar 2.328792536319573 3.547130671703609 -0.3594455335026959
Ar 1.9658745143690686 1.3567872380933736 2.340051717867702
4
	Step: 44. Total Energy: -1.3668352260949497 kcal/mol.
Ar -0.31485386529316656 -0.38243441678466844 -0.35010681359954404
Ar 3.845518189166998 -0.20582996440538556 -0.26830480825205855
Ar 2.328792536319573 3.547130671703609 -0.3594455335026959
Ar 1.8799742059478366 1.4354238395334387 2.4322538448338884
4
	Step: 45. Total Energy: -1.4650014189325609 kcal/mol.
Ar -0.31485386529316656 -0.38243441678466844 -0.35010681359954404
Ar 3.845518189166998 -0.20582996440538556 -0.26830480825205855
Ar 2.328792536319573 3.547130671703609 -0.3594455335026959
Ar 1.7418929360574622 1.3541069697312644 2.619737590821552
4
	Step: 46. Total Energy: -1.4679487565065583 kcal/mol.
Ar -0.2156636411415409 -0.5595683076216752 -0.31643577581595556
Ar 3.845518189166998 -0.20582996440538556 -0.26830480825205855
Ar 2.328792536319573 3.547130671703609 -0.3594455335026959
Ar 1.7418929360574622 1.3541069697312644 2.619737590821552
4
	Step: 47. Total Energy: -1.4958523586824592 kcal/mol.
Ar -0.2156636411415409 -0.5595683076216752 -0.31643577581595556
Ar 3.6682700210584716 -0.20269856560801816 -0.12776779011440997
Ar 2.328792536319573 3.547130671703609 -0.3594455335026959
Ar 1.7418929360574622 1.3541069697312644 2.619737590821552
4
	Step: 48. Total Energy: -1.468435909402793 kcal/mol.
Ar -0.14557861969990482 -0.6654867496213027 -0.4684811302371059
Ar 3.6682700210584716 -0.20269856560801816 -0.12776779011440997
Ar 2.328792536319573 3.547130671703609 -0.3594455335026959
Ar 1.7418929360574622 1.3541069697312644 2.619737590821552
4
	Step: 49. Total Energy: -1.4417677410116685 kcal/mol.
Ar -0.14557861969990482 -0.6654867496213027 -0.4684811302371059
Ar 3.699837644061356 -0.3868019006923924 -0.2949744279164598
Ar 2.328792536319573 3.547130671703609 -0.3594455335026959
Ar 1.7418929360574622 1.3541069697312644 2.619737590821552
4
	Step: 50. Total Energy: -1.4467174109409715 kcal/mol.
Ar -0.14557861969990482 -0.6654867496213027 -0.4684811302371059
Ar 3.699837644061356 -0.3868019006923924 -0.2949744279164598
Ar 2.502675039414144 3.4288343514730233 -0.27296881318693
Ar 1.7418929360574622 1.3541069697312644 2.619737590821552
4
	Step: 51. Total Energy: -1.4384113533292324 kcal/mol.
Ar -0.14557861969990482 -0.6654867496213027 -0.4684811302371059
Ar 3.699837644061356 -0.3868019006923924 -0.2949744279164598
Ar 2.502675039414144 3.4288343514730233 -0.27296881318693
Ar 1.5942442489084447 1.412307285266324 2.602627419849733
4
	Step: 52. Total Energy: -1.3968871133206058 kcal/mol.
Ar -0.34185243694620626 -0.6170230474240657 -0.4432836719815275
Ar 3.699837644061356 -0.3868019006923924 -0.2949744279164598
Ar 2.502675039414144 3.4288343514730233 -0.27296881318693
Ar 1.5942442489084447 1.412307285266324 2.602627419849733
4
	Step: 53. Total Energy: -1.3516824566607424 kcal/mol.
Ar -0.34185243694620626 -0.6170230474240657 -0.4432836719815275
Ar 3.702191521680862 -0.5338192725458055 -0.3553708939306538
Ar 2.502675039414144 3.4288343514730233 -0.27296881318693
Ar 1.5942442489084447 1.412307285266324 2.602627419849733
4
	Step: 54. Total Energy: -1.3464525808034618 kcal/mol.
Ar -0.34185243694620626 -0.6170230474240657 -0.4432836719815275
Ar 3.6500023571764157 -0.6707205396029128 -0.22187291207473098
Ar 2.502675039414144 3.4288343514730233 -0.27296881318693
Ar 1.5942442489084447 1.412307285266324 2.602627419849733
4
	Step: 55. Total Energy: -1.3933163256709367 kcal/mol.
Ar -0.27470715546117286 -0.5951821344281946 -0.27058125620709655
Ar 3.6500023571764157 -0.6707205396029128 -0.22187291207473098
Ar 2.502675039414144 3.4288343514730233 -0.27296881318693
Ar 1.5942442489084447 1.412307285266324 2.602627419849733
4
	Step: 56. Total Energy: -1.4610086494060992 kcal/mol.
Ar -0.27470715546117286 -0.5951821344281946 -0.27058125620709655
Ar 3.555788725771267 -0.514835456800629 -0.12490623848233151
Ar 2.502675039414144 3.4288343514730233 -0.27296881318693
Ar 1.5942442489084447 1.412307285266324 2.602627419849733
4
	Step: 57. Total Energy: -1.4694190552387607 kcal/mol.
Ar -0.27470715546117286 -0.5951821344281946 -0.27058125620709655
Ar 3.555788725771267 -0.514835456800629 -0.12490623848233151
Ar 2.5446069702262335 3.5158792263285426 -0.3915298882559488
Ar 1.5942442489084447 1.412307285266324 2.602627419849733
4
	Step: 58. Total Energy: -1.4477282475360151 kcal/mol.
Ar -0.27470715546117286 -0.5951821344281946 -0.27058125620709655
Ar 3.555788725771267 -0.514835456800629 -0.12490623848233151
Ar 2.5467705934654283 3.4163277271565002 -0.22826626976852005
Ar 1.5942442489084447 1.412307285266324 2.602627419849733
4
	Step: 59. Total Energy: -1.450438819289285 kcal/mol.
Ar -0.27470715546117286 -0.5951821344281946 -0.27058125620709655
Ar 3.555788725771267 -0.514835456800629 -0.12490623848233151
Ar 2.5467705934654283 3.4163277271565002 -0.22826626976852005
Ar 1.7259834846573325 1.229941989985944 2.536050035291768
4
	Step: 60. Total Energy: -1.382271833285985 kcal/mol.
Ar -0.27470715546117286 -0.5951821344281946 -0.27058125620709655
Ar 3.555788725771267 -0.514835456800629 -0.12490623848233151
Ar 2.411403383974983 3.3930619319008404 -0.14599929106452375
Ar 1.7259834846573325 1.229941989985944 2.536050035291768
4
	Step: 61. Total Energy: -1.3731037268140802 kcal/mol.
Ar -0.44460961143166605 -0.44193957710813736 -0.10900982758313926
Ar 3.555788725771267 -0.514835456800629 -0.12490623848233151
Ar 2.411403383974983 3.3930619319008404 -0.14599929106452375
Ar 1.7259834846573325 1.229941989985944 2.536050035291768
4
	Step: 62. Total Energy: -1.4438491685402333 kcal/mol.
Ar -0.44460961143166605 -0.44193957710813736 -0.10900982758313926
Ar 3.555788725771267 -0.514835456800629 -0.12490623848233151
Ar 2.4444072105709003 3.2522994461278336 -0.29502108335166827
Ar 1.7259834846573325 1.229941989985944 2.536050035291768
4
	Step: 63. Total Energy: -1.461232660387887 kcal/mol.
Ar -0.2850397568210762 -0.5579089617722357 -0.2091979318939695
Ar 3.555788725771267 -0.514835456800629 -0.12490623848233151
Ar 2.4444072105709003 3.2522994461278336 -0.29502108335166827
Ar 1.7259834846573325 1.229941989985944 2.536050035291768
4
	Step: 64. Total Energy: -1.4755243513808554 kcal/mol.
Ar -0.2850397568210762 -0.5579089617722357 -0.2091979318939695
Ar 3.555788725771267 -0.514835456800629 -0.12490623848233151
Ar 2.4444072105709003 3.2522994461278336 -0.29502108335166827
Ar 1.9155182937122481 1.3297330344433598 2.706355564319591
4
	Step: 65. Total Energy: -1.4402233529765995 kcal/mol.
Ar -0.2850397568210762 -0.5579089617722357 -0.2091979318939695
Ar 3.746271138943652 -0.3905267688244703 0.027660243382998273
Ar 2.4444072105709003 3.2522994461278336 -0.29502108335166827
Ar 1.9155182937122481 1.3297330344433598 2.706355564319591
4
	Step: 66. Total Energy: -1.398409446212463 kcal/mol.
Ar -0.2850397568210762 -0.5579089617722357 -0.2091979318939695
Ar 3.746271138943652 -0.3905267688244703 0.027660243382998273
Ar 2.557361809029953 3.216984712748455 -0.22705823163638955
Ar 1.9155182937122481 1.3297330344433598 2.706355564319591
4
	Step: 67. Total Energy: -1.395804533310749 kcal/mol.
Ar -0.2850397568210762 -0.5579089617722357 -0.2091979318939695
Ar 3.6529934227814405 -0.27557696517028185 -0.12910150605581888
Ar 2.557361809029953 3.216984712748455 -0.22705823163638955
Ar 1.9155182937122481 1.3297330344433598 2.706355564319591
4
	Step: 68. Total Energy: -1.3536372626403759 kcal/mol.
Ar -0.2850397568210762 -0.5579089617722357 -0.2091979318939695
Ar 3.6529934227814405 -0.27557696517028185 -0.12910150605581888
Ar 2.557361809029953 3.216984712748455 -0.22705823163638955
Ar 1.8044917807305139 1.4563676766821314 2.6904768581911678
4
	Step: 69. Total Energy: -1.310309413283222 kcal/mol.
Ar -0.2850397568210762 -0.5579089617722357 -0.2091979318939695
Ar 3.542162841663764 -0.21156369207083026 -0.1697151146299055
Ar 2.557361809029953 3.216984712748455 -0.22705823163638955
Ar 1.8044917807305139 1.4563676766821314 2.6904768581911678
4
	Step: 70. Total Energy: -1.3107420460837158 kcal/mol.
Ar -0.09828411520173169 -0.6462589646834871 -0.15260523645091845
Ar 3.542162841663764 -0.21156369207083026 -0.1697151146299055
Ar 2.557361809029953 3.216984712748455 -0.22705823163638955
Ar 1.8044917807305139 1.4563676766821314 2.6904768581911678
4
	Step: 71. Total Energy: -0.6382186584243186 kcal/mol.
Ar -0.09828411520173169 -0.6462589646834871 -0.15260523645091845
Ar 3.542162841663764 -0.21156369207083026 -0.1697151146299055
Ar 2.733056665159839 3.063121413489026 -0.038897987227498376
Ar 1.8044917807305139 1.4563676766821314 2.6904768581911678
4
	Step: 72. Total Energy: -0.8829656240363172 kcal/mol.
Ar -0.09828411520173169 -0.6462589646834871 -0.15260523645091845
Ar 3.542162841663764 -0.21156369207083026 -0.1697151146299055
Ar 2.548359544101144 3.101749915484124 -0.10062314255557828
Ar 1.8044917807305139 1.4563676766821314 2.6904768581911678
4
	Step: 73. Total Energy: -0.699439456872586 kcal/mol.
Ar -0.09828411520173169 -0.6462589646834871 -0.15260523645091845
Ar 3.542162841663764 -0.21156369207083026 -0.1697151146299055
Ar 2.548359544101144 3.101749915484124 -0.10062314255557828
Ar 1.8469753220529712 1.4609369005499226 2.6445550315290585
4
	Step: 75. Total Energy: -0.80866436045164 kcal/mol.
Ar -0.09828411520173169 -0.6462589646834871 -0.15260523645091845
Ar 3.4878514303762693 -0.38357416762030616 -0.10402004066539658
Ar 2.548359544101144 3.101749915484124 -0.10062314255557828
Ar 1.8469753220529712 1.4609369005499226 2.6445550315290585
4
	Step: 77. Total Energy: -0.798337212932622 kcal/mol.
Ar -0.09828411520173169 -0.6462589646834871 -0.15260523645091845
Ar 3.4878514303762693 -0.38357416762030616 -0.10402004066539658
Ar 2.548359544101144 3.101749915484124 -0.10062314255557828
Ar 1.7774484839959312 1.5398202662276823 2.6663200225957757
4
	Step: 78. Total Energy: -0.5373495943025595 kcal/mol.
Ar -0.09828411520173169 -0.6462589646834871 -0.15260523645091845
Ar 3.4878514303762693 -0.38357416762030616 -0.10402004066539658
Ar 2.548359544101144 3.101749915484124 -0.10062314255557828
Ar 1.8483756621050245 1.7009424845207155 2.712525988976328
4
	Step: 79. Total Energy: -0.5469679105624325 kcal/mol.
Ar -0.17673413549439018 -0.7621858907304303 -0.038301705459886426
Ar 3.4878514303762693 -0.38357416762030616 -0.10402004066539658
Ar 2.548359544101144 3.101749915484124 -0.10062314255557828
Ar 1.8483756621050245 1.7009424845207155 2.712525988976328
4
	Step: 80. Total Energy: -0.9118765848532737 kcal/mol.
Ar -0.17673413549439018 -0.7621858907304303 -0.038301705459886426
Ar 3.4878514303762693 -0.38357416762030616 -0.10402004066539658
Ar 2.5343548201999497 3.078613835206047 -0.21514258215993817
Ar 1.8483756621050245 1.7009424845207155 2.712525988976328
4
	Step: 81. Total Energy: -0.9621985078830733 kcal/mol.
Ar -0.17673413549439018 -0.7621858907304303 -0.038301705459886426
Ar 3.551391728375638 -0.4700596056230952 -0.03847850614339707
Ar 2.5343548201999497 3.078613835206047 -0.21514258215993817
Ar 1.8483756621050245 1.7009424845207155 2.712525988976328
4
	Step: 82. Total Energy: -0.9764084429230626 kcal/mol.
Ar -0.04936474967972446 -0.6617306357141375 0.030816562762980393
Ar 3.551391728375638 -0.4700596056230952 -0.03847850614339707
Ar 2.5343548201999497 3.078613835206047 -0.21514258215993817
Ar 1.8483756621050245 1.7009424845207155 2.712525988976328
4
	Step: 83. Total Energy: -0.8585751927061898 kcal/mol.
Ar -0.04936474967972446 -0.6617306357141375 0.030816562762980393
Ar 3.4103333132739473 -0.6515741183859918 0.15509590296934353
Ar 2.5343548201999497 3.078613835206047 -0.21514258215993817
Ar 1.8483756621050245 1.7009424845207155 2.712525988976328
4
	Step: 84. Total Energy: -0.9209684504966653 kcal/mol.
Ar -0.06719828232768879 -0.5072758720937449 0.06108492252670766
Ar 3.4103333132739473 -0.6515741183859918 0.15509590296934353
Ar 2.5343548201999497 3.078613835206047 -0.21514258215993817
Ar 1.8483756621050245 1.7009424845207155 2.712525988976328
4
	Step: 85. Total Energy: -1.1782354489793136 kcal/mol.
Ar -0.06719828232768879 -0.5072758720937449 0.06108492252670766
Ar 3.4103333132739473 -0.6515741183859918 0.15509590296934353
Ar 2.5343548201999497 3.078613835206047 -0.21514258215993817
Ar 1.8461265297091993 1.598536260352091 2.7749491934210413
4
	Step: 86. Total Energy: -0.9715660636046198 kcal/mol.
Ar 0.044169880379241216 -0.6197394173688171 0.18272886499596486
Ar 3.4103333132739473 -0.6515741183859918 0.15509590296934353
Ar 2.5343548201999497 3.078613835206047 -0.21514258215993817
Ar 1.8461265297091993 1.598536260352091 2.7749491934210413
4
	Step: 87. Total Energy: -1.1970512857571616 kcal/mol.
Ar 0.044169880379241216 -0.6197394173688171 0.18272886499596486
Ar 3.4103333132739473 -0.6515741183859918 0.15509590296934353
Ar 2.5343548201999497 3.078613835206047 -0.21514258215993817
Ar 1.6662138837654557 1.4982155722160797 2.9142837323617052
4
	Step: 89. Total Energy: -1.16155022859959 kcal/mol.
Ar 0.044169880379241216 -0.6197394173688171 0.18272886499596486
Ar 3.4103333132739473 -0.6515741183859918 0.15509590296934353
Ar 2.5343548201999497 3.078613835206047 -0.21514258215993817
Ar 1.7112748128701607 1.5859251567264665 2.916194998291466
4
	Step: 90. Total Energy: -1.0681343872285665 kcal/mol.
Ar 0.044169880379241216 -0.6197394173688171 0.18272886499596486
Ar 3.4103333132739473 -0.6515741183859918 0.15509590296934353
Ar 2.5343548201999497 3.078613835206047 -0.21514258215993817
Ar 1.8701580541634657 1.6833873335903005 2.906064773020687
4
	Step: 91. Total Energy: -1.284136398222837 kcal/mol.
Ar 0.044169880379241216 -0.6197394173688171 0.18272886499596486
Ar 3.5462784684107156 -0.7406495771336956 0.2661658371029323
Ar 2.5343548201999497 3.078613835206047 -0.21514258215993817
Ar 1.8701580541634657 1.6833873335903005 2.906064773020687
4
	Step: 92. Total Energy: -1.1267510241803307 kcal/mol.
Ar 0.044169880379241216 -0.6197394173688171 0.18272886499596486
Ar 3.4561174471777307 -0.9096562355878013 0.18045709744819327
Ar 2.5343548201999497 3.078613835206047 -0.21514258215993817
Ar 1.8701580541634657 1.6833873335903005 2.906064773020687
4
	Step: 93. Total Energy: -1.2521380328957712 kcal/mol.
Ar 0.044169880379241216 -0.6197394173688171 0.18272886499596486
Ar 3.4561174471777307 -0.9096562355878013 0.18045709744819327
Ar 2.6915655533160763 2.910844898269114 -0.35481031895470355
Ar 1.8701580541634657 1.6833873335903005 2.906064773020687
4
	Step: 94. Total Energy: -1.3230649668037344 kcal/mol.
Ar 0.044169880379241216 -0.6197394173688171 0.18272886499596486
Ar 3.538685103855552 -1.0839646953022501 0.14349684531482795
Ar 2.6915655533160763 2.910844898269114 -0.35481031895470355
Ar 1.8701580541634657 1.6833873335903005 2.906064773020687
4
	Step: 95. Total Energy: -1.2719565673072806 kcal/mol.
Ar 0.044169880379241216 -0.6197394173688171 0.18272886499596486
Ar 3.538685103855552 -1.0839646953022501 0.14349684531482795
Ar 2.6915655533160763 2.910844898269114 -0.35481031895470355
Ar 1.6950643383968997 1.8165438013264956 2.8618554980874635
4
	Step: 96. Total Energy: -1.1368750077086882 kcal/mol.
Ar 0.18686269330081492 -0.5135015869215893 0.1348812765670495
Ar 3.538685103855552 -1.0839646953022501 0.14349684531482795
Ar 2.6915655533160763 2.910844898269114 -0.35481031895470355
Ar 1.6950643383968997 1.8165438013264956 2.8618554980874635
4
	Step: 98. Total Energy: -1.1309802954716761 kcal/mol.
Ar 0.18686269330081492 -0.5135015869215893 0.1348812765670495
Ar 3.533976894875652 -1.1747905705969475 0.1377536428342281
Ar 2.6915655533160763 2.910844898269114 -0.35481031895470355
Ar 1.6950643383968997 1.8165438013264956 2.8618554980874635
4
	Step: 99. Total Energy: -1.1247793877057726 kcal/mol.
Ar 0.18686269330081492 -0.5135015869215893 0.1348812765670495
Ar 3.533976894875652 -1.1747905705969475 0.1377536428342281
Ar 2.6915655533160763 2.910844898269114 -0.35481031895470355
Ar 1.7847368894478153 1.952746066551519 3.029672146355054
4
	Step: 100. Total Energy: -0.7278674476279678 kcal/mol.
Ar 0.3496342383355222 -0.47674447667042497 0.20008117930151403
Ar 3.533976894875652 -1.1747905705969475 0.1377536428342281
Ar 2.6915655533160763 2.910844898269114 -0.35481031895470355
Ar 1.7847368894478153 1.952746066551519 3.029672146355054
4
	Step: 101. Total Energy: -0.6680611487367045 kcal/mol.
Ar 0.3496342383355222 -0.47674447667042497 0.20008117930151403
Ar 3.533976894875652 -1.1747905705969475 0.1377536428342281
Ar 2.6915655533160763 2.910844898269114 -0.35481031895470355
Ar 1.6390166843400409 1.9374254441721237 2.849785999750505
4
	Step: 102. Total Energy: -0.6504490405855783 kcal/mol.
Ar 0.3496342383355222 -0.47674447667042497 0.20008117930151403
Ar 3.5158566248822445 -1.2397903513673991 0.28960963723498634
Ar 2.6915655533160763 2.910844898269114 -0.35481031895470355
Ar 1.6390166843400409 1.9374254441721237 2.849785999750505
4
	Step: 103. Total Energy: -0.46334464380006074 kcal/mol.
Ar 0.3496342383355222 -0.47674447667042497 0.20008117930151403
Ar 3.5158566248822445 -1.2397903513673991 0.28960963723498634
Ar 2.6915655533160763 2.910844898269114 -0.35481031895470355
Ar 1.539925297052993 1.7701879372767806 2.657539314570509
4
	Step: 104. Total Energy: 0.43729007349872473 kcal/mol.
Ar 0.3496342383355222 -0.47674447667042497 0.20008117930151403
Ar 3.5158566248822445 -1.2397903513673991 0.28960963723498634
Ar 2.5812544196039755 2.738292246450222 -0.17189607784415623
Ar 1.539925297052993 1.7701879372767806 2.657539314570509
4
	Step: 106. Total Energy: 0.3209027920965106 kcal/mol.
Ar 0.3496342383355222 -0.47674447667042497 0.20008117930151403
Ar 3.5052810492606956 -1.3940345729236765 0.4687124461216471
Ar 2.5812544196039755 2.738292246450222 -0.17189607784415623
Ar 1.539925297052993 1.7701879372767806 2.657539314570509
4
	Step: 109. Total Energy: -0.19099958244180032 kcal/mol.
Ar 0.3496342383355222 -0.47674447667042497 0.20008117930151403
Ar 3.5052810492606956 -1.3940345729236765 0.4687124461216471
Ar 2.611573110968941 2.9015027068692 -0.22177329407402885
Ar 1.539925297052993 1.7701879372767806 2.657539314570509
4
	Step: 110. Total Energy: 0.7851692891624327 kcal/mol.
Ar 0.3496342383355222 -0.47674447667042497 0.20008117930151403
Ar 3.3356796403979194 -1.3177888065504844 0.5196094043620649
Ar 2.611573110968941 2.9015027068692 -0.22177329407402885
Ar 1.539925297052993 1.7701879372767806 2.657539314570509
4
	Step: 111. Total Energy: 0.3408649295105801 kcal/mol.
Ar 0.3496342383355222 -0.47674447667042497 0.20008117930151403
Ar 3.3356796403979194 -1.3177888065504844 0.5196094043620649
Ar 2.7516904066044594 2.9416673527959376 -0.37335126804710284
Ar 1.539925297052993 1.7701879372767806 2.657539314570509
4
	Step: 112. Total Energy: -0.13129347451441375 kcal/mol.
Ar 0.2885157444589018 -0.5053932713765272 0.1483095297887365
Ar 3.3356796403979194 -1.3177888065504844 0.5196094043620649
Ar 2.7516904066044594 2.9416673527959376 -0.37335126804710284
Ar 1.539925297052993 1.7701879372767806 2.657539314570509
4
	Step: 113. Total Energy: -0.03933512023777748 kcal/mol.
Ar 0.2885157444589018 -0.5053932713765272 0.1483095297887365
Ar 3.3356796403979194 -1.3177888065504844 0.5196094043620649
Ar 2.5567512666708008 2.9096908491326685 -0.37727058605093955
Ar 1.539925297052993 1.7701879372767806 2.657539314570509
4
	Step: 114. Total Energy: 0.025968465777473648 kcal/mol.
Ar 0.2885157444589018 -0.5053932713765272 0.1483095297887365
Ar 3.3356796403979194 -1.3177888065504844 0.5196094043620649
Ar 2.610985309111379 3.041173773533652 -0.29434712856850875
Ar 1.539925297052993 1.7701879372767806 2.657539314570509
4
	Step: 115. Total Energy: 0.10634063951383656 kcal/mol.
Ar 0.2885157444589018 -0.5053932713765272 0.1483095297887365
Ar 3.3356796403979194 -1.3177888065504844 0.5196094043620649
Ar 2.6573502507327995 3.2090208362947585 -0.18449054841987889
Ar 1.539925297052993 1.7701879372767806 2.657539314570509
4
	Step: 117. Total Energy: -0.02152494771966959 kcal/mol.
Ar 0.2885157444589018 -0.5053932713765272 0.1483095297887365
Ar 3.3356796403979194 -1.3177888065504844 0.5196094043620649
Ar 2.6573502507327995 3.2090208362947585 -0.18449054841987889
Ar 1.4374706727293756 1.7560713239180732 2.7016719962627174
4
	Step: 118. Total Energy: 0.06444247032680941 kcal/mol.
Ar 0.28623834590527064 -0.5753876042210234 0.14332950274527423
Ar 3.3356796403979194 -1.3177888065504844 0.5196094043620649
Ar 2.6573502507327995 3.2090208362947585 -0.18449054841987889
Ar 1.4374706727293756 1.7560713239180732 2.7016719962627174
4
	Step: 119. Total Energy: 0.13545226121024534 kcal/mol.