7
 Step: 0. Total Energy: -3.2967325292954457 kcal/mol.
Ar 0.0 0.0 0.0
Ar 4.0 0.0 0.0
Ar 8.0 0.0 0.0
Ar 12.0 0.0 0.0
Ar 16.0 0.0 0.0
Ar 20.0 0.0 0.0
Ar 24.0 0.0 0.0
7
 Step: 2. Total Energy: -2.946750562819467 kcal/mol.
Ar 0.0 0.0 0.0
Ar 4.0 0.0 0.0
Ar 7.7264562915986925 0.17059046751496398 -0.06250294709881121
Ar 12.0 0.0 0.0
Ar 15.561428292767308 0.01987983407283056 -0.33317012725677053
Ar 20.0 0.0 0.0
Ar 24.0 0.0 0.0
7
 Step: 3. Total Energy: -3.140423965098289 kcal/mol.
Ar 0.0 0.0 0.0
Ar 4.0 0.0 0.0
Ar 7.7264562915986925 0.17059046751496398 -0.06250294709881121
Ar 12.0 0.0 0.0
Ar 15.901856081416078 -0.4472478460854905 -0.7650592813825927
Ar 20.0 0.0 0.0
Ar 24.0 0.0 0.0
7
 Step: 4. Total Energy: -3.0947740464745204 kcal/mol.
Ar 0.0 0.0 0.0
Ar 4.0 0.0 0.0
Ar 7.7264562915986925 0.17059046751496398 -0.06250294709881121
Ar 12.0 0.0 0.0
Ar 15.901856081416078 -0.4472478460854905 -0.7650592813825927
Ar 20.0 0.0 0.0
Ar 24.11789937624244 -0.030451210547413288 0.21112235478404595
7
 Step: 5. Total Energy: -3.1097066627637484 kcal/mol.
Ar 0.0 0.0 0.0
Ar 4.0 0.0 0.0
Ar 7.776156456297337 0.47896101559238 0.37530129799119516
Ar 12.0 0.0 0.0
Ar 15.901856081416078 -0.4472478460854905 -0.7650592813825927
Ar 20.0 0.0 0.0
Ar 24.11789937624244 -0.030451210547413288 0.21112235478404595
7
 Step: 6. Total Energy: -3.0870137731410647 kcal/mol.
Ar 0.0 0.0 0.0
Ar 4.0 0.0 0.0
Ar 8.00218726366327 0.7460869427542132 0.6674045024978239
Ar 12.0 0.0 0.0
Ar 15.901856081416078 -0.4472478460854905 -0.7650592813825927
Ar 20.0 0.0 0.0
Ar 24.11789937624244 -0.030451210547413288 0.21112235478404595
7
 Step: 9. Total Energy: -2.9283138723060316 kcal/mol.
Ar 0.0 0.0 0.0
Ar 3.6851778976211462 -0.26385923489982666 0.04905806816781377
Ar 7.652360335076528 0.3046906404471523 0.6225878052403818
Ar 12.0 0.0 0.0
Ar 15.901856081416078 -0.4472478460854905 -0.7650592813825927
Ar 20.42911507398007 0.1304366925531919 -0.3571695645644528
Ar 24.11789937624244 -0.030451210547413288 0.21112235478404595
7
 Step: 25. Total Energy: -2.5906051089770292 kcal/mol.
Ar -0.3241839219154926 0.13355803377915632 -0.06781639069140954
Ar 3.157326028534732 -0.6408368896840061 0.8931865576710225
Ar 7.319954345442207 -0.42849358490554845 0.4431978364706437
Ar 11.532991288182725 0.29908484716087935 -0.32373420467525604
Ar 15.98422515651322 -0.28061095537619585 -0.8762602172621116
Ar 20.42911507398007 0.1304366925531919 -0.3571695645644528
Ar 24.364432570836765 0.6616198133301313 1.212919717093988
7
 Step: 26. Total Energy: -2.540497859723202 kcal/mol.
Ar -0.3241839219154926 0.13355803377915632 -0.06781639069140954
Ar 3.088422570844049 -0.15017025679736962 1.3924622776443338
Ar 7.319954345442207 -0.42849358490554845 0.4431978364706437
Ar 11.532991288182725 0.29908484716087935 -0.32373420467525604
Ar 15.98422515651322 -0.28061095537619585 -0.8762602172621116
Ar 20.42911507398007 0.1304366925531919 -0.3571695645644528
Ar 24.364432570836765 0.6616198133301313 1.212919717093988
7
 Step: 27. Total Energy: -2.5144719756394722 kcal/mol.
Ar -0.3241839219154926 0.13355803377915632 -0.06781639069140954
Ar 3.088422570844049 -0.15017025679736962 1.3924622776443338
Ar 7.110795056078857 -0.7679618794490978 0.7697457341314419
Ar 11.532991288182725 0.29908484716087935 -0.32373420467525604
Ar 15.98422515651322 -0.28061095537619585 -0.8762602172621116
Ar 20.42911507398007 0.1304366925531919 -0.3571695645644528
Ar 24.364432570836765 0.6616198133301313 1.212919717093988
7
 Step: 28. Total Energy: -2.4494651672496373 kcal/mol.
Ar -0.3241839219154926 0.13355803377915632 -0.06781639069140954
Ar 3.088422570844049 -0.15017025679736962 1.3924622776443338
Ar 7.110795056078857 -0.7679618794490978 0.7697457341314419
Ar 11.532991288182725 0.29908484716087935 -0.32373420467525604
Ar 15.98422515651322 -0.28061095537619585 -0.8762602172621116
Ar 20.42911507398007 0.1304366925531919 -0.3571695645644528
Ar 24.496461779643326 0.7284242400135973 1.3056869974916505
7
 Step: 29. Total Energy: -2.4591150038652954 kcal/mol.
Ar -0.3241839219154926 0.13355803377915632 -0.06781639069140954
Ar 3.088422570844049 -0.15017025679736962 1.3924622776443338
Ar 6.944865449895691 -0.6114700289251291 1.1398639551114895
Ar 11.532991288182725 0.29908484716087935 -0.32373420467525604
Ar 15.98422515651322 -0.28061095537619585 -0.8762602172621116
Ar 20.42911507398007 0.1304366925531919 -0.3571695645644528
Ar 24.496461779643326 0.7284242400135973 1.3056869974916505
7
 Step: 30. Total Energy: -2.4819117787184397 kcal/mol.
Ar -0.3241839219154926 0.13355803377915632 -0.06781639069140954
Ar 3.088422570844049 -0.15017025679736962 1.3924622776443338
Ar 6.944865449895691 -0.6114700289251291 1.1398639551114895
Ar 11.532991288182725 0.29908484716087935 -0.32373420467525604
Ar 16.151856020303875 -0.1297214325557252 -0.8265640786334343
Ar 20.42911507398007 0.1304366925531919 -0.3571695645644528
Ar 24.496461779643326 0.7284242400135973 1.3056869974916505
7
 Step: 31. Total Energy: -2.5005177925028335 kcal/mol.
Ar -0.3241839219154926 0.13355803377915632 -0.06781639069140954
Ar 3.21553935857865 0.15087008681396874 1.2123237344714672
Ar 6.944865449895691 -0.6114700289251291 1.1398639551114895
Ar 11.532991288182725 0.29908484716087935 -0.32373420467525604
Ar 16.151856020303875 -0.1297214325557252 -0.8265640786334343
Ar 20.42911507398007 0.1304366925531919 -0.3571695645644528
Ar 24.496461779643326 0.7284242400135973 1.3056869974916505
7
 Step: 32. Total Energy: -2.4621032791424833 kcal/mol.
Ar -0.3241839219154926 0.13355803377915632 -0.06781639069140954
Ar 3.21553935857865 0.15087008681396874 1.2123237344714672
Ar 6.944865449895691 -0.6114700289251291 1.1398639551114895
Ar 11.532991288182725 0.29908484716087935 -0.32373420467525604
Ar 16.151856020303875 -0.1297214325557252 -0.8265640786334343
Ar 20.42911507398007 0.1304366925531919 -0.3571695645644528
Ar 24.52979145837295 1.1934566540048184 1.2759840979118517
7
 Step: 33. Total Energy: -2.4412635534294425 kcal/mol.
Ar -0.3241839219154926 0.13355803377915632 -0.06781639069140954
Ar 3.21553935857865 0.15087008681396874 1.2123237344714672
Ar 6.944865449895691 -0.6114700289251291 1.1398639551114895
Ar 11.532991288182725 0.29908484716087935 -0.32373420467525604
Ar 16.151856020303875 -0.1297214325557252 -0.8265640786334343
Ar 20.279155531967223 -0.31244327319257226 -0.4346697145307393
Ar 24.52979145837295 1.1934566540048184 1.2759840979118517
7
 Step: 35. Total Energy: -2.3015134830840998 kcal/mol.
Ar -0.6744084161025902 0.37174945237210466 0.4043655853520306
Ar 3.21553935857865 0.15087008681396874 1.2123237344714672
Ar 6.944865449895691 -0.6114700289251291 1.1398639551114895
Ar 11.532991288182725 0.29908484716087935 -0.32373420467525604
Ar 16.151856020303875 -0.1297214325557252 -0.8265640786334343
Ar 20.279155531967223 -0.31244327319257226 -0.4346697145307393
Ar 24.962959461050673 1.1729965035342853 1.734174117259975
7
 Step: 36. Total Energy: -2.2921543421021378 kcal/mol.
Ar -0.19848605008190523 0.7545546258867909 0.024023528774032465
Ar 3.21553935857865 0.15087008681396874 1.2123237344714672
Ar 6.944865449895691 -0.6114700289251291 1.1398639551114895
Ar 11.532991288182725 0.29908484716087935 -0.32373420467525604
Ar 16.151856020303875 -0.1297214325557252 -0.8265640786334343
Ar 20.279155531967223 -0.31244327319257226 -0.4346697145307393
Ar 24.962959461050673 1.1729965035342853 1.734174117259975
7
 Step: 37. Total Energy: -1.9354507621921624 kcal/mol.
Ar -0.19848605008190523 0.7545546258867909 0.024023528774032465
Ar 3.21553935857865 0.15087008681396874 1.2123237344714672
Ar 6.58953422330274 -0.7328730412749481 1.1331322015897864
Ar 11.532991288182725 0.29908484716087935 -0.32373420467525604
Ar 16.151856020303875 -0.1297214325557252 -0.8265640786334343
Ar 20.279155531967223 -0.31244327319257226 -0.4346697145307393
Ar 24.962959461050673 1.1729965035342853 1.734174117259975
7
 Step: 38. Total Energy: -1.9943466576150424 kcal/mol.
Ar -0.19848605008190523 0.7545546258867909 0.024023528774032465
Ar 3.21553935857865 0.15087008681396874 1.2123237344714672
Ar 6.58953422330274 -0.7328730412749481 1.1331322015897864
Ar 11.532991288182725 0.29908484716087935 -0.32373420467525604
Ar 16.151856020303875 -0.1297214325557252 -0.8265640786334343
Ar 20.279155531967223 -0.31244327319257226 -0.4346697145307393
Ar 24.583511727101026 1.1517453679832403 1.7433005129308197
7
 Step: 41. Total Energy: -1.8168249269405965 kcal/mol.
Ar -0.07200027215364835 1.0983799125831384 -0.36347893728361236
Ar 3.081832075564655 0.5660770629079988 0.801813386675362
Ar 6.58953422330274 -0.7328730412749481 1.1331322015897864
Ar 11.532991288182725 0.29908484716087935 -0.32373420467525604
Ar 16.151856020303875 -0.1297214325557252 -0.8265640786334343
Ar 19.96277376222274 -0.43230216565904234 -0.09088527923666301
Ar 24.583511727101026 1.1517453679832403 1.7433005129308197
7
 Step: 158. Total Energy: -1.6880551804087327 kcal/mol.
Ar 1.2606420246225798 0.7467540971367472 -0.49222122385211
Ar 4.124133084882687 2.405280457082012 0.19740776455606812
Ar 3.066902147457583 -0.4722592087788804 2.60418184918257
Ar 11.640639377776434 -1.152772199831517 -0.017366086084136145
Ar 17.229253394954846 -0.7773880932260321 -0.8903056746168049
Ar 19.838318241082618 1.4261936723672903 0.20422479442423136
Ar 25.72764881748186 1.929695307716976 2.8531671981618523
7
 Step: 159. Total Energy: -1.689019803958547 kcal/mol.
Ar 1.2606420246225798 0.7467540971367472 -0.49222122385211
Ar 4.124133084882687 2.405280457082012 0.19740776455606812
Ar 3.066902147457583 -0.4722592087788804 2.60418184918257
Ar 11.640639377776434 -1.152772199831517 -0.017366086084136145
Ar 17.229253394954846 -0.7773880932260321 -0.8903056746168049
Ar 19.838318241082618 1.4261936723672903 0.20422479442423136
Ar 25.501895542105235 2.1018144404753265 3.22610589409018
7
 Step: 162. Total Energy: -1.8833955727880596 kcal/mol.
Ar 1.2606420246225798 0.7467540971367472 -0.49222122385211
Ar 4.051902057478042 2.59526160710471 0.1712783730145795
Ar 3.066902147457583 -0.4722592087788804 2.60418184918257
Ar 11.640639377776434 -1.152772199831517 -0.017366086084136145
Ar 17.229253394954846 -0.7773880932260321 -0.8903056746168049
Ar 20.09192197397486 1.1700947319473713 0.3776064080742766
Ar 25.501895542105235 2.1018144404753265 3.22610589409018
7
 Step: 163. Total Energy: -1.850241919668802 kcal/mol.
Ar 1.2606420246225798 0.7467540971367472 -0.49222122385211
Ar 4.051902057478042 2.59526160710471 0.1712783730145795
Ar 3.066902147457583 -0.4722592087788804 2.60418184918257
Ar 11.640639377776434 -1.152772199831517 -0.017366086084136145
Ar 17.229253394954846 -0.7773880932260321 -0.8903056746168049
Ar 20.163410884655466 1.01439190378502 0.29982732577011584
Ar 25.501895542105235 2.1018144404753265 3.22610589409018
7
 Step: 164. Total Energy: -1.838452382800465 kcal/mol.
Ar 1.2606420246225798 0.7467540971367472 -0.49222122385211
Ar 4.051902057478042 2.59526160710471 0.1712783730145795
Ar 3.066902147457583 -0.4722592087788804 2.60418184918257
Ar 11.640639377776434 -1.152772199831517 -0.017366086084136145
Ar 17.229253394954846 -0.7773880932260321 -0.8903056746168049
Ar 20.163410884655466 1.01439190378502 0.29982732577011584
Ar 25.566977034286495 1.617841232554254 3.687745395990928
7
 Step: 165. Total Energy: -1.7428757109066197 kcal/mol.
Ar 1.2606420246225798 0.7467540971367472 -0.49222122385211
Ar 3.8493646459873223 2.6071445498906187 0.634243201494152
Ar 3.066902147457583 -0.4722592087788804 2.60418184918257
Ar 11.640639377776434 -1.152772199831517 -0.017366086084136145
Ar 17.229253394954846 -0.7773880932260321 -0.8903056746168049
Ar 20.163410884655466 1.01439190378502 0.29982732577011584
Ar 25.566977034286495 1.617841232554254 3.687745395990928
7
 Step: 166. Total Energy: -1.714035914272078 kcal/mol.
Ar 1.2606420246225798 0.7467540971367472 -0.49222122385211
Ar 3.8493646459873223 2.6071445498906187 0.634243201494152
Ar 3.066902147457583 -0.4722592087788804 2.60418184918257
Ar 11.348932689819517 -1.59580040851544 0.03186746698609322
Ar 17.229253394954846 -0.7773880932260321 -0.8903056746168049
Ar 20.163410884655466 1.01439190378502 0.29982732577011584
Ar 25.566977034286495 1.617841232554254 3.687745395990928
7
 Step: 167. Total Energy: -1.7264616095627332 kcal/mol.
Ar 1.2606420246225798 0.7467540971367472 -0.49222122385211
Ar 3.8493646459873223 2.6071445498906187 0.634243201494152
Ar 3.066902147457583 -0.4722592087788804 2.60418184918257
Ar 11.514953327412986 -1.1142841239588641 0.39223576378903957
Ar 17.229253394954846 -0.7773880932260321 -0.8903056746168049
Ar 20.163410884655466 1.01439190378502 0.29982732577011584
Ar 25.566977034286495 1.617841232554254 3.687745395990928
7
 Step: 168. Total Energy: -2.278116206799228 kcal/mol.
Ar 1.5792254996189226 0.29922043022900013 -0.9843639862604794
Ar 3.8493646459873223 2.6071445498906187 0.634243201494152
Ar 3.066902147457583 -0.4722592087788804 2.60418184918257
Ar 11.514953327412986 -1.1142841239588641 0.39223576378903957
Ar 17.229253394954846 -0.7773880932260321 -0.8903056746168049
Ar 20.163410884655466 1.01439190378502 0.29982732577011584
Ar 25.566977034286495 1.617841232554254 3.687745395990928
7
 Step: 169. Total Energy: -2.2754639435512183 kcal/mol.
Ar 1.5792254996189226 0.29922043022900013 -0.9843639862604794
Ar 3.8493646459873223 2.6071445498906187 0.634243201494152
Ar 3.066902147457583 -0.4722592087788804 2.60418184918257
Ar 11.514953327412986 -1.1142841239588641 0.39223576378903957
Ar 17.229253394954846 -0.7773880932260321 -0.8903056746168049
Ar 20.163410884655466 1.01439190378502 0.29982732577011584
Ar 25.399867113238333 1.7547410797446623 4.015648538802063
7
 Step: 170. Total Energy: -2.2626992385216016 kcal/mol.
Ar 1.5792254996189226 0.29922043022900013 -0.9843639862604794
Ar 3.8493646459873223 2.6071445498906187 0.634243201494152
Ar 3.066902147457583 -0.4722592087788804 2.60418184918257
Ar 11.514953327412986 -1.1142841239588641 0.39223576378903957
Ar 17.229253394954846 -0.7773880932260321 -0.8903056746168049
Ar 20.163410884655466 1.01439190378502 0.29982732577011584
Ar 25.784208090101973 2.1152005922054897 3.9450678788979343
7
 Step: 171. Total Energy: -1.9002331860269766 kcal/mol.
Ar 1.5792254996189226 0.29922043022900013 -0.9843639862604794
Ar 3.8493646459873223 2.6071445498906187 0.634243201494152
Ar 3.376489166011365 -0.07166356343536562 2.830549217552333
Ar 11.514953327412986 -1.1142841239588641 0.39223576378903957
Ar 17.229253394954846 -0.7773880932260321 -0.8903056746168049
Ar 20.163410884655466 1.01439190378502 0.29982732577011584
Ar 25.784208090101973 2.1152005922054897 3.9450678788979343
7
 Step: 172. Total Energy: -2.0901169174780834 kcal/mol.
Ar 1.5792254996189226 0.29922043022900013 -0.9843639862604794
Ar 3.3573776745470725 2.978565197228711 0.5318389475123697
Ar 3.376489166011365 -0.07166356343536562 2.830549217552333
Ar 11.514953327412986 -1.1142841239588641 0.39223576378903957
Ar 17.229253394954846 -0.7773880932260321 -0.8903056746168049
Ar 20.163410884655466 1.01439190378502 0.29982732577011584
Ar 25.784208090101973 2.1152005922054897 3.9450678788979343
7
 Step: 174. Total Energy: -1.7317711326592058 kcal/mol.
Ar 1.5792254996189226 0.29922043022900013 -0.9843639862604794
Ar 3.11324107385312 3.011676035908108 0.3901652177970596
Ar 3.376489166011365 -0.07166356343536562 2.830549217552333
Ar 11.514953327412986 -1.1142841239588641 0.39223576378903957
Ar 16.856668118656252 -0.578878042060002 -1.306216646216941
Ar 20.163410884655466 1.01439190378502 0.29982732577011584
Ar 25.784208090101973 2.1152005922054897 3.9450678788979343
7
 Step: 175. Total Energy: -1.7242589131490011 kcal/mol.
Ar 1.5792254996189226 0.29922043022900013 -0.9843639862604794
Ar 3.11324107385312 3.011676035908108 0.3901652177970596
Ar 3.376489166011365 -0.07166356343536562 2.830549217552333
Ar 11.514953327412986 -1.1142841239588641 0.39223576378903957
Ar 17.16610302630626 -0.6410959645159502 -1.5951178892793894
Ar 20.163410884655466 1.01439190378502 0.29982732577011584
Ar 25.784208090101973 2.1152005922054897 3.9450678788979343
7
 Step: 176. Total Energy: -2.1341647008360547 kcal/mol.
Ar 1.1737928724020779 0.25218133058628245 -1.089358015361047
Ar 3.11324107385312 3.011676035908108 0.3901652177970596
Ar 3.376489166011365 -0.07166356343536562 2.830549217552333
Ar 11.514953327412986 -1.1142841239588641 0.39223576378903957
Ar 17.16610302630626 -0.6410959645159502 -1.5951178892793894
Ar 20.163410884655466 1.01439190378502 0.29982732577011584
Ar 25.784208090101973 2.1152005922054897 3.9450678788979343
7
 Step: 177. Total Energy: -2.0807038922666092 kcal/mol.
Ar 1.1737928724020779 0.25218133058628245 -1.089358015361047
Ar 3.11324107385312 3.011676035908108 0.3901652177970596
Ar 3.376489166011365 -0.07166356343536562 2.830549217552333
Ar 11.514953327412986 -1.1142841239588641 0.39223576378903957
Ar 17.39485357783333 -0.7014398531999949 -2.064877339187649
Ar 20.163410884655466 1.01439190378502 0.29982732577011584
Ar 25.784208090101973 2.1152005922054897 3.9450678788979343
7
 Step: 178. Total Energy: -2.0942614149873635 kcal/mol.
Ar 1.1737928724020779 0.25218133058628245 -1.089358015361047
Ar 2.9223991162975924 3.2256407360259027 0.6137131708687085
Ar 3.376489166011365 -0.07166356343536562 2.830549217552333
Ar 11.514953327412986 -1.1142841239588641 0.39223576378903957
Ar 17.39485357783333 -0.7014398531999949 -2.064877339187649
Ar 20.163410884655466 1.01439190378502 0.29982732577011584
Ar 25.784208090101973 2.1152005922054897 3.9450678788979343
7
 Step: 179. Total Energy: -2.0306630183719356 kcal/mol.
Ar 1.1737928724020779 0.25218133058628245 -1.089358015361047
Ar 2.9223991162975924 3.2256407360259027 0.6137131708687085
Ar 3.376489166011365 -0.07166356343536562 2.830549217552333
Ar 11.514953327412986 -1.1142841239588641 0.39223576378903957
Ar 17.296435768338 -0.895861484230801 -2.106823082287462
Ar 20.163410884655466 1.01439190378502 0.29982732577011584
Ar 25.784208090101973 2.1152005922054897 3.9450678788979343
7
 Step: 180. Total Energy: -2.0239068511936353 kcal/mol.
Ar 1.1737928724020779 0.25218133058628245 -1.089358015361047
Ar 2.9223991162975924 3.2256407360259027 0.6137131708687085
Ar 3.376489166011365 -0.07166356343536562 2.830549217552333
Ar 11.497976611379125 -1.0923099794345763 0.7335952852978729
Ar 17.296435768338 -0.895861484230801 -2.106823082287462
Ar 20.163410884655466 1.01439190378502 0.29982732577011584
Ar 25.784208090101973 2.1152005922054897 3.9450678788979343
7
 Step: 181. Total Energy: -2.033815063397602 kcal/mol.
Ar 1.1737928724020779 0.25218133058628245 -1.089358015361047
Ar 2.9223991162975924 3.2256407360259027 0.6137131708687085
Ar 3.376489166011365 -0.07166356343536562 2.830549217552333
Ar 11.497976611379125 -1.0923099794345763 0.7335952852978729
Ar 17.296435768338 -0.895861484230801 -2.106823082287462
Ar 20.27078466434075 0.7790398264188988 0.3076217418980166
Ar 25.784208090101973 2.1152005922054897 3.9450678788979343
7
 Step: 182. Total Energy: -2.0344276165480824 kcal/mol.
Ar 1.1737928724020779 0.25218133058628245 -1.089358015361047
Ar 2.9223991162975924 3.2256407360259027 0.6137131708687085
Ar 3.376489166011365 -0.07166356343536562 2.830549217552333
Ar 11.497976611379125 -1.0923099794345763 0.7335952852978729
Ar 17.296435768338 -0.895861484230801 -2.106823082287462
Ar 20.27078466434075 0.7790398264188988 0.3076217418980166
Ar 25.46758147023974 1.824217853887782 4.441902494794929
7
 Step: 183. Total Energy: -2.060088685747279 kcal/mol.
Ar 1.1737928724020779 0.25218133058628245 -1.089358015361047
Ar 2.9223991162975924 3.2256407360259027 0.6137131708687085
Ar 3.496469590166967 -0.14308839202191148 2.680282500943671
Ar 11.497976611379125 -1.0923099794345763 0.7335952852978729
Ar 17.296435768338 -0.895861484230801 -2.106823082287462
Ar 20.27078466434075 0.7790398264188988 0.3076217418980166
Ar 25.46758147023974 1.824217853887782 4.441902494794929
7
 Step: 184. Total Energy: -2.183350614477064 kcal/mol.
Ar 1.537750788480389 0.1484598890665495 -0.7584850883094916
Ar 2.9223991162975924 3.2256407360259027 0.6137131708687085
Ar 3.496469590166967 -0.14308839202191148 2.680282500943671
Ar 11.497976611379125 -1.0923099794345763 0.7335952852978729
Ar 17.296435768338 -0.895861484230801 -2.106823082287462
Ar 20.27078466434075 0.7790398264188988 0.3076217418980166
Ar 25.46758147023974 1.824217853887782 4.441902494794929
7
 Step: 185. Total Energy: -2.0809809843177587 kcal/mol.
Ar 1.537750788480389 0.1484598890665495 -0.7584850883094916
Ar 2.9223991162975924 3.2256407360259027 0.6137131708687085
Ar 3.496469590166967 -0.14308839202191148 2.680282500943671
Ar 11.497976611379125 -1.0923099794345763 0.7335952852978729
Ar 17.296435768338 -0.895861484230801 -2.106823082287462
Ar 19.783275633296327 0.3092563647956702 0.09951242456560927
Ar 25.46758147023974 1.824217853887782 4.441902494794929
7
 Step: 186. Total Energy: -1.8211025928350746 kcal/mol.
Ar 1.537750788480389 0.1484598890665495 -0.7584850883094916
Ar 2.9223991162975924 3.2256407360259027 0.6137131708687085
Ar 3.8850655319375362 0.13573760214461816 3.1473864165067686
Ar 11.497976611379125 -1.0923099794345763 0.7335952852978729
Ar 17.296435768338 -0.895861484230801 -2.106823082287462
Ar 19.783275633296327 0.3092563647956702 0.09951242456560927
Ar 25.46758147023974 1.824217853887782 4.441902494794929
7
 Step: 187. Total Energy: -1.8159193280131247 kcal/mol.
Ar 1.537750788480389 0.1484598890665495 -0.7584850883094916
Ar 2.9223991162975924 3.2256407360259027 0.6137131708687085
Ar 3.8850655319375362 0.13573760214461816 3.1473864165067686
Ar 11.312649022644939 -0.7494543129172202 0.8437642316591633
Ar 17.296435768338 -0.895861484230801 -2.106823082287462
Ar 19.783275633296327 0.3092563647956702 0.09951242456560927
Ar 25.46758147023974 1.824217853887782 4.441902494794929
7
 Step: 188. Total Energy: -1.8979171844435632 kcal/mol.
Ar 1.537750788480389 0.1484598890665495 -0.7584850883094916
Ar 2.9223991162975924 3.2256407360259027 0.6137131708687085
Ar 3.8850655319375362 0.13573760214461816 3.1473864165067686
Ar 11.312649022644939 -0.7494543129172202 0.8437642316591633
Ar 16.86963601911836 -0.6325482054375804 -1.7395328715458775
Ar 19.783275633296327 0.3092563647956702 0.09951242456560927
Ar 25.46758147023974 1.824217853887782 4.441902494794929
7
 Step: 189. Total Energy: -2.0822600541919747 kcal/mol.
Ar 1.537750788480389 0.1484598890665495 -0.7584850883094916
Ar 2.9223991162975924 3.2256407360259027 0.6137131708687085
Ar 3.4398962643642332 0.11187715885105853 2.9900586182939533
Ar 11.312649022644939 -0.7494543129172202 0.8437642316591633
Ar 16.86963601911836 -0.6325482054375804 -1.7395328715458775
Ar 19.783275633296327 0.3092563647956702 0.09951242456560927
Ar 25.46758147023974 1.824217853887782 4.441902494794929
7
 Step: 190. Total Energy: -2.001967581070659 kcal/mol.
Ar 1.537750788480389 0.1484598890665495 -0.7584850883094916
Ar 3.3097341181627202 2.9319253794198774 0.6150826976096944
Ar 3.4398962643642332 0.11187715885105853 2.9900586182939533
Ar 11.312649022644939 -0.7494543129172202 0.8437642316591633
Ar 16.86963601911836 -0.6325482054375804 -1.7395328715458775
Ar 19.783275633296327 0.3092563647956702 0.09951242456560927
Ar 25.46758147023974 1.824217853887782 4.441902494794929
7
 Step: 593. Total Energy: -0.5166907789981453 kcal/mol.
Ar 0.5916696932280509 -1.3311503356491685 -3.723251056594317
Ar 2.804656735827759 5.6844193193094945 2.5832157696767766
Ar 2.6270653060389573 0.294658008575828 3.4123489542222334
Ar 12.410870349460819 -0.8114075997476604 4.467040510306899
Ar 19.4137249418146 -1.9469041910286196 -3.729189196923306
Ar 18.328169469646983 1.7728939193050366 -1.4489722747430027
Ar 28.762158769467426 0.9525860496124816 1.6019958771433536
7
 Step: 594. Total Energy: -0.5185896775550808 kcal/mol.
Ar 0.879095787493095 -1.1742908673091148 -3.7360364666425308
Ar 2.804656735827759 5.6844193193094945 2.5832157696767766
Ar 2.6270653060389573 0.294658008575828 3.4123489542222334
Ar 12.410870349460819 -0.8114075997476604 4.467040510306899
Ar 19.4137249418146 -1.9469041910286196 -3.729189196923306
Ar 18.328169469646983 1.7728939193050366 -1.4489722747430027
Ar 28.762158769467426 0.9525860496124816 1.6019958771433536
7
 Step: 597. Total Energy: -0.4709666026440938 kcal/mol.
Ar 0.879095787493095 -1.1742908673091148 -3.7360364666425308
Ar 2.804656735827759 5.6844193193094945 2.5832157696767766
Ar 2.6270653060389573 0.294658008575828 3.4123489542222334
Ar 12.577556203823686 -0.9715885009658203 4.954839623975445
Ar 19.239062461805 -2.224156163760806 -3.6006747145677798
Ar 18.328169469646983 1.7728939193050366 -1.4489722747430027
Ar 28.762158769467426 0.9525860496124816 1.6019958771433536
7
 Step: 598. Total Energy: -0.4447287880323962 kcal/mol.
Ar 0.879095787493095 -1.1742908673091148 -3.7360364666425308
Ar 2.804656735827759 5.6844193193094945 2.5832157696767766
Ar 2.9731022073795073 0.04782923690796792 3.3662001579885374
Ar 12.577556203823686 -0.9715885009658203 4.954839623975445
Ar 19.239062461805 -2.224156163760806 -3.6006747145677798
Ar 18.328169469646983 1.7728939193050366 -1.4489722747430027
Ar 28.762158769467426 0.9525860496124816 1.6019958771433536
7
 Step: 599. Total Energy: -0.4480511320152753 kcal/mol.
Ar 1.2886196467513624 -1.4146724795173118 -3.5982061284079525
Ar 2.804656735827759 5.6844193193094945 2.5832157696767766
Ar 2.9731022073795073 0.04782923690796792 3.3662001579885374
Ar 12.577556203823686 -0.9715885009658203 4.954839623975445
Ar 19.239062461805 -2.224156163760806 -3.6006747145677798
Ar 18.328169469646983 1.7728939193050366 -1.4489722747430027
Ar 28.762158769467426 0.9525860496124816 1.6019958771433536
7
 Step: 600. Total Energy: -0.44812962876689544 kcal/mol.
Ar 1.2886196467513624 -1.4146724795173118 -3.5982061284079525
Ar 2.804656735827759 5.6844193193094945 2.5832157696767766
Ar 2.9731022073795073 0.04782923690796792 3.3662001579885374
Ar 12.577556203823686 -0.9715885009658203 4.954839623975445
Ar 19.239062461805 -2.224156163760806 -3.6006747145677798
Ar 18.328169469646983 1.7728939193050366 -1.4489722747430027
Ar 28.706961734356153 1.012394992816256 1.6265140660575699
7
 Step: 601. Total Energy: -0.5589804815010277 kcal/mol.
Ar 1.2886196467513624 -1.4146724795173118 -3.5982061284079525
Ar 2.804656735827759 5.6844193193094945 2.5832157696767766
Ar 2.9731022073795073 0.04782923690796792 3.3662001579885374
Ar 12.577556203823686 -0.9715885009658203 4.954839623975445
Ar 19.239062461805 -2.224156163760806 -3.6006747145677798
Ar 18.608416739394894 1.610333020301409 -1.712973267780042
Ar 28.706961734356153 1.012394992816256 1.6265140660575699
7
 Step: 602. Total Energy: -0.6493147277938962 kcal/mol.
Ar 1.2886196467513624 -1.4146724795173118 -3.5982061284079525
Ar 2.804656735827759 5.6844193193094945 2.5832157696767766
Ar 2.9731022073795073 0.04782923690796792 3.3662001579885374
Ar 12.577556203823686 -0.9715885009658203 4.954839623975445
Ar 19.64783635491121 -1.8175910733662652 -3.693530609544294
Ar 18.608416739394894 1.610333020301409 -1.712973267780042
Ar 28.706961734356153 1.012394992816256 1.6265140660575699
7
 Step: 603. Total Energy: -0.6517527720831277 kcal/mol.
Ar 1.2886196467513624 -1.4146724795173118 -3.5982061284079525
Ar 2.804656735827759 5.6844193193094945 2.5832157696767766
Ar 2.9731022073795073 0.04782923690796792 3.3662001579885374
Ar 12.932974659956319 -0.9086323623406087 4.4857954754358085
Ar 19.64783635491121 -1.8175910733662652 -3.693530609544294
Ar 18.608416739394894 1.610333020301409 -1.712973267780042
Ar 28.706961734356153 1.012394992816256 1.6265140660575699
7
 Step: 604. Total Energy: -0.6549939519899434 kcal/mol.
Ar 1.2886196467513624 -1.4146724795173118 -3.5982061284079525
Ar 2.804656735827759 5.6844193193094945 2.5832157696767766
Ar 3.235562072853507 -0.028069553537799607 2.956474616381951
Ar 12.932974659956319 -0.9086323623406087 4.4857954754358085
Ar 19.64783635491121 -1.8175910733662652 -3.693530609544294
Ar 18.608416739394894 1.610333020301409 -1.712973267780042
Ar 28.706961734356153 1.012394992816256 1.6265140660575699
7
 Step: 605. Total Energy: -0.7023768050618174 kcal/mol.
Ar 1.2886196467513624 -1.4146724795173118 -3.5982061284079525
Ar 2.804656735827759 5.6844193193094945 2.5832157696767766
Ar 3.235562072853507 -0.028069553537799607 2.956474616381951
Ar 12.932974659956319 -0.9086323623406087 4.4857954754358085
Ar 20.121837561153654 -1.6404992636953577 -3.376134220783067
Ar 18.608416739394894 1.610333020301409 -1.712973267780042
Ar 28.706961734356153 1.012394992816256 1.6265140660575699
7
 Step: 606. Total Energy: -0.6944597754736456 kcal/mol.
Ar 1.2886196467513624 -1.4146724795173118 -3.5982061284079525
Ar 2.804656735827759 5.6844193193094945 2.5832157696767766
Ar 3.0706577736029304 -0.04538884041516511 3.2232110865216663
Ar 12.932974659956319 -0.9086323623406087 4.4857954754358085
Ar 20.121837561153654 -1.6404992636953577 -3.376134220783067
Ar 18.608416739394894 1.610333020301409 -1.712973267780042
Ar 28.706961734356153 1.012394992816256 1.6265140660575699
7
 Step: 607. Total Energy: -0.699001327844429 kcal/mol.
Ar 0.9938872908908325 -1.5541353541419363 -3.278464244212744
Ar 2.804656735827759 5.6844193193094945 2.5832157696767766
Ar 3.0706577736029304 -0.04538884041516511 3.2232110865216663
Ar 12.932974659956319 -0.9086323623406087 4.4857954754358085
Ar 20.121837561153654 -1.6404992636953577 -3.376134220783067
Ar 18.608416739394894 1.610333020301409 -1.712973267780042
Ar 28.706961734356153 1.012394992816256 1.6265140660575699
7
 Step: 608. Total Energy: -0.6565214366836775 kcal/mol.
Ar 0.9938872908908325 -1.5541353541419363 -3.278464244212744
Ar 2.804656735827759 5.6844193193094945 2.5832157696767766
Ar 2.8226339148769357 -0.4897488857085225 3.711354089954073
Ar 12.932974659956319 -0.9086323623406087 4.4857954754358085
Ar 20.121837561153654 -1.6404992636953577 -3.376134220783067
Ar 18.608416739394894 1.610333020301409 -1.712973267780042
Ar 28.706961734356153 1.012394992816256 1.6265140660575699
7
 Step: 609. Total Energy: -0.6579054044588182 kcal/mol.
Ar 0.9938872908908325 -1.5541353541419363 -3.278464244212744
Ar 2.804656735827759 5.6844193193094945 2.5832157696767766