4
 Step: 0. Total Energy: 16.628253760477214 kcal/mol.
Ar 0.0 0.0 0.0
Ar 4.0 0.0 0.0
Ar 2.0 3.46 0.0
Ar 2.0 1.53 2.03
4
 Step: 2. Total Energy: 7.909869263417217 kcal/mol.
Ar 0.0 0.0 0.0
Ar 4.0 0.0 0.0
Ar 2.0 3.46 0.0
Ar 2.1497654544481373 1.4120199055317537 2.121855112550763
4
 Step: 4. Total Energy: 7.120601318976495 kcal/mol.
Ar 0.0 0.0 0.0
Ar 4.08405994047743 0.158232304810968 -0.11442132184956942
Ar 2.0 3.46 0.0
Ar 2.1497654544481373 1.4120199055317537 2.121855112550763
4
 Step: 6. Total Energy: 6.088644586153928 kcal/mol.
Ar 0.0 0.0 0.0
Ar 4.201156033067731 -0.018131117250477002 -0.12567210142568036
Ar 2.0 3.46 0.0
Ar 2.1497654544481373 1.4120199055317537 2.121855112550763
4
 Step: 9. Total Energy: 5.954794907582361 kcal/mol.
Ar 0.054674588266858726 0.08228589224241584 -0.128636768373539
Ar 4.201156033067731 -0.018131117250477002 -0.12567210142568036
Ar 2.0 3.46 0.0
Ar 2.1497654544481373 1.4120199055317537 2.121855112550763
4
 Step: 10. Total Energy: 5.884928389308527 kcal/mol.
Ar 0.054674588266858726 0.08228589224241584 -0.128636768373539
Ar 4.081967280057757 -0.21446596235238147 -0.12017877018470269
Ar 2.0 3.46 0.0
Ar 2.1497654544481373 1.4120199055317537 2.121855112550763
4
 Step: 13. Total Energy: 2.929897210786522 kcal/mol.
Ar 0.054674588266858726 0.08228589224241584 -0.128636768373539
Ar 4.081967280057757 -0.21446596235238147 -0.12017877018470269
Ar 2.0 3.46 0.0
Ar 2.3375929641224045 1.2129701360096745 2.122396740376751
4
 Step: 15. Total Energy: 1.8877127372184042 kcal/mol.
Ar 0.054674588266858726 0.08228589224241584 -0.128636768373539
Ar 4.081967280057757 -0.21446596235238147 -0.12017877018470269
Ar 2.049575164976883 3.397778459883352 -0.16142469637579496
Ar 2.3375929641224045 1.2129701360096745 2.122396740376751
4
 Step: 16. Total Energy: 1.501037647527617 kcal/mol.
Ar -0.12405605309600362 -0.09542397131293054 -0.24382223695952723
Ar 4.081967280057757 -0.21446596235238147 -0.12017877018470269
Ar 2.049575164976883 3.397778459883352 -0.16142469637579496
Ar 2.3375929641224045 1.2129701360096745 2.122396740376751
4
 Step: 18. Total Energy: 1.0590164893763645 kcal/mol.
Ar -0.12405605309600362 -0.09542397131293054 -0.24382223695952723
Ar 4.044218829407075 -0.07304139946614313 -0.27438622936677237
Ar 2.049575164976883 3.397778459883352 -0.16142469637579496
Ar 2.3375929641224045 1.2129701360096745 2.122396740376751
4
 Step: 23. Total Energy: -0.3156386110746512 kcal/mol.
Ar -0.12405605309600362 -0.09542397131293054 -0.24382223695952723
Ar 4.044218829407075 -0.07304139946614313 -0.27438622936677237
Ar 2.049575164976883 3.397778459883352 -0.16142469637579496
Ar 2.1477664441320345 1.402594001511667 2.277671396310608
4
 Step: 25. Total Energy: -0.3604734475909839 kcal/mol.
Ar 0.06847254696158864 -0.0487543611491813 -0.28820230026053617
Ar 4.044218829407075 -0.07304139946614313 -0.27438622936677237
Ar 2.049575164976883 3.397778459883352 -0.16142469637579496
Ar 2.1477664441320345 1.402594001511667 2.277671396310608
4
 Step: 29. Total Energy: -0.3760320490314004 kcal/mol.
Ar -0.06661485140506287 -0.03573209190676338 -0.370889222439853
Ar 4.044218829407075 -0.07304139946614313 -0.27438622936677237
Ar 2.049575164976883 3.397778459883352 -0.16142469637579496
Ar 2.1477664441320345 1.402594001511667 2.277671396310608
4
 Step: 32. Total Energy: -0.4027410539038567 kcal/mol.
Ar -0.03402279907961123 -0.02149319151211257 -0.5012263670404188
Ar 4.044218829407075 -0.07304139946614313 -0.27438622936677237
Ar 2.049575164976883 3.397778459883352 -0.16142469637579496
Ar 2.1477664441320345 1.402594001511667 2.277671396310608
4
 Step: 33. Total Energy: -2.5939110473980627 kcal/mol.
Ar -0.03402279907961123 -0.02149319151211257 -0.5012263670404188
Ar 4.044218829407075 -0.07304139946614313 -0.27438622936677237
Ar 2.049575164976883 3.397778459883352 -0.16142469637579496
Ar 2.132802150852212 1.2097389264300817 2.4475158897526446
4
 Step: 35. Total Energy: -2.593952809596461 kcal/mol.
Ar -0.03402279907961123 -0.02149319151211257 -0.5012263670404188
Ar 4.019834194771624 -0.15816333840123384 -0.26231773203325803
Ar 2.049575164976883 3.397778459883352 -0.16142469637579496
Ar 2.132802150852212 1.2097389264300817 2.4475158897526446
4
 Step: 36. Total Energy: -2.6741667262406876 kcal/mol.
Ar -0.03402279907961123 -0.02149319151211257 -0.5012263670404188
Ar 3.8769880994469657 -0.1326668747216143 -0.37506687947250367
Ar 2.049575164976883 3.397778459883352 -0.16142469637579496
Ar 2.132802150852212 1.2097389264300817 2.4475158897526446
4
 Step: 37. Total Energy: -2.6990918161502053 kcal/mol.
Ar -0.03402279907961123 -0.02149319151211257 -0.5012263670404188
Ar 4.07540443714778 -0.13660862750890904 -0.5078128677731846
Ar 2.049575164976883 3.397778459883352 -0.16142469637579496
Ar 2.132802150852212 1.2097389264300817 2.4475158897526446
4
 Step: 40. Total Energy: -2.834066380539751 kcal/mol.
Ar -0.03402279907961123 -0.02149319151211257 -0.5012263670404188
Ar 4.07540443714778 -0.13660862750890904 -0.5078128677731846
Ar 2.0486635946860354 3.27396243065028 -0.28230510950767235
Ar 2.132802150852212 1.2097389264300817 2.4475158897526446
4
 Step: 41. Total Energy: -2.8639318986637687 kcal/mol.
Ar -0.03402279907961123 -0.02149319151211257 -0.5012263670404188
Ar 4.051504397020497 -0.04692600191677462 -0.567398277621298
Ar 2.0486635946860354 3.27396243065028 -0.28230510950767235
Ar 2.132802150852212 1.2097389264300817 2.4475158897526446
4
 Step: 44. Total Energy: -2.8519651539727526 kcal/mol.
Ar -0.010613067140492205 0.0018415968624900247 -0.6716157987172355
Ar 4.051504397020497 -0.04692600191677462 -0.567398277621298
Ar 2.0486635946860354 3.27396243065028 -0.28230510950767235
Ar 2.132802150852212 1.2097389264300817 2.4475158897526446
4
 Step: 46. Total Energy: -2.8358823357704943 kcal/mol.
Ar 0.09132595182198089 -0.19258200093459685 -0.7295027570694423
Ar 4.051504397020497 -0.04692600191677462 -0.567398277621298
Ar 2.0486635946860354 3.27396243065028 -0.28230510950767235
Ar 2.132802150852212 1.2097389264300817 2.4475158897526446
4
 Step: 47. Total Energy: -2.658181826935336 kcal/mol.
Ar 0.09132595182198089 -0.19258200093459685 -0.7295027570694423
Ar 4.051504397020497 -0.04692600191677462 -0.567398277621298
Ar 2.0486635946860354 3.27396243065028 -0.28230510950767235
Ar 1.9919509242721867 1.2638883429182797 2.428411151379032
4
 Step: 48. Total Energy: -2.6332432143878632 kcal/mol.
Ar 0.10460508973118193 -0.34947243887956636 -0.5783209724525704
Ar 4.051504397020497 -0.04692600191677462 -0.567398277621298
Ar 2.0486635946860354 3.27396243065028 -0.28230510950767235
Ar 1.9919509242721867 1.2638883429182797 2.428411151379032
4
 Step: 50. Total Energy: -2.60969328563477 kcal/mol.
Ar 0.22541321620661514 -0.4550689961429275 -0.7141628064036334
Ar 4.051504397020497 -0.04692600191677462 -0.567398277621298
Ar 2.0486635946860354 3.27396243065028 -0.28230510950767235
Ar 1.9919509242721867 1.2638883429182797 2.428411151379032
4
 Step: 51. Total Energy: -2.722654501902798 kcal/mol.
Ar 0.22541321620661514 -0.4550689961429275 -0.7141628064036334
Ar 4.051504397020497 -0.04692600191677462 -0.567398277621298
Ar 2.0486635946860354 3.27396243065028 -0.28230510950767235
Ar 1.949413764011768 1.3215863589722239 2.5170072703173627
4
 Step: 52. Total Energy: -2.768080121204147 kcal/mol.
Ar 0.18773513418384077 -0.37936936027898793 -0.6390033841615036
Ar 4.051504397020497 -0.04692600191677462 -0.567398277621298
Ar 2.0486635946860354 3.27396243065028 -0.28230510950767235
Ar 1.949413764011768 1.3215863589722239 2.5170072703173627
4
 Step: 53. Total Energy: -2.988288430207864 kcal/mol.
Ar 0.18773513418384077 -0.37936936027898793 -0.6390033841615036
Ar 4.051504397020497 -0.04692600191677462 -0.567398277621298
Ar 2.074228775331632 3.3725536858201854 -0.32896144838555597
Ar 1.949413764011768 1.3215863589722239 2.5170072703173627
4
 Step: 55. Total Energy: -2.9601451014399243 kcal/mol.
Ar 0.18773513418384077 -0.37936936027898793 -0.6390033841615036
Ar 4.061444042232825 -0.18481407473103473 -0.43721704036389514
Ar 2.074228775331632 3.3725536858201854 -0.32896144838555597
Ar 1.949413764011768 1.3215863589722239 2.5170072703173627
4
 Step: 56. Total Energy: -3.0585076813685106 kcal/mol.
Ar 0.18773513418384077 -0.37936936027898793 -0.6390033841615036
Ar 4.061444042232825 -0.18481407473103473 -0.43721704036389514
Ar 1.998283890836845 3.5636775033087438 -0.46581889972718626
Ar 1.949413764011768 1.3215863589722239 2.5170072703173627
4
 Step: 57. Total Energy: -3.0202283407721913 kcal/mol.
Ar 0.18773513418384077 -0.37936936027898793 -0.6390033841615036
Ar 4.061444042232825 -0.18481407473103473 -0.43721704036389514
Ar 1.8104919197722282 3.617090717136992 -0.4544129165312744
Ar 1.949413764011768 1.3215863589722239 2.5170072703173627
4
 Step: 58. Total Energy: -3.016440285434821 kcal/mol.
Ar 0.18773513418384077 -0.37936936027898793 -0.6390033841615036
Ar 4.061444042232825 -0.18481407473103473 -0.43721704036389514
Ar 1.8104919197722282 3.617090717136992 -0.4544129165312744
Ar 2.085725519793206 1.2249154997589955 2.5627324266743425
4
 Step: 60. Total Energy: -3.1206891400389516 kcal/mol.
Ar 0.3187469723272909 -0.2509075110389656 -0.6167671627294904
Ar 4.061444042232825 -0.18481407473103473 -0.43721704036389514
Ar 1.8104919197722282 3.617090717136992 -0.4544129165312744
Ar 2.085725519793206 1.2249154997589955 2.5627324266743425
4
 Step: 62. Total Energy: -3.1686199614011388 kcal/mol.
Ar 0.3187469723272909 -0.2509075110389656 -0.6167671627294904
Ar 4.061444042232825 -0.18481407473103473 -0.43721704036389514
Ar 1.7008246783210978 3.5342658078943856 -0.5168192421262042
Ar 2.085725519793206 1.2249154997589955 2.5627324266743425
4
 Step: 63. Total Energy: -3.094767056522009 kcal/mol.
Ar 0.3187469723272909 -0.2509075110389656 -0.6167671627294904
Ar 4.174945200632076 -0.29820799205357157 -0.4476574337685276
Ar 1.7008246783210978 3.5342658078943856 -0.5168192421262042
Ar 2.085725519793206 1.2249154997589955 2.5627324266743425
4
 Step: 64. Total Energy: -3.109906436016861 kcal/mol.
Ar 0.3187469723272909 -0.2509075110389656 -0.6167671627294904
Ar 4.0114944668030414 -0.35805540746977926 -0.2688898318479582
Ar 1.7008246783210978 3.5342658078943856 -0.5168192421262042
Ar 2.085725519793206 1.2249154997589955 2.5627324266743425
4
 Step: 66. Total Energy: -3.103042781611069 kcal/mol.
Ar 0.3187469723272909 -0.2509075110389656 -0.6167671627294904
Ar 4.0114944668030414 -0.35805540746977926 -0.2688898318479582
Ar 1.7008246783210978 3.5342658078943856 -0.5168192421262042
Ar 1.8898127933457967 1.085860608703542 2.472500592214703
4
 Step: 68. Total Energy: -3.0740366592210497 kcal/mol.
Ar 0.3187469723272909 -0.2509075110389656 -0.6167671627294904
Ar 4.10522228728026 -0.47209456397737193 -0.14282620951291353
Ar 1.7008246783210978 3.5342658078943856 -0.5168192421262042
Ar 1.8898127933457967 1.085860608703542 2.472500592214703
4
 Step: 69. Total Energy: -3.164831441175775 kcal/mol.
Ar 0.3187469723272909 -0.2509075110389656 -0.6167671627294904
Ar 4.10522228728026 -0.47209456397737193 -0.14282620951291353
Ar 1.8801605999019118 3.3472060331245217 -0.43833813042451203
Ar 1.8898127933457967 1.085860608703542 2.472500592214703
4
 Step: 70. Total Energy: -3.1655948532580975 kcal/mol.
Ar 0.3187469723272909 -0.2509075110389656 -0.6167671627294904
Ar 4.1903474679250685 -0.323214981145248 -0.06520492598800026
Ar 1.8801605999019118 3.3472060331245217 -0.43833813042451203
Ar 1.8898127933457967 1.085860608703542 2.472500592214703
4
 Step: 72. Total Energy: -3.1916257422792214 kcal/mol.
Ar 0.3187469723272909 -0.2509075110389656 -0.6167671627294904
Ar 4.1903474679250685 -0.323214981145248 -0.06520492598800026
Ar 1.8801605999019118 3.3472060331245217 -0.43833813042451203
Ar 2.011307093312296 1.0994170978760247 2.5394529933268446
4
 Step: 73. Total Energy: -3.1889799556370715 kcal/mol.
Ar 0.3187469723272909 -0.2509075110389656 -0.6167671627294904
Ar 4.1903474679250685 -0.323214981145248 -0.06520492598800026
Ar 1.8801605999019118 3.3472060331245217 -0.43833813042451203
Ar 2.113403071197939 1.1078570387607924 2.636813363275807
4
 Step: 76. Total Energy: -3.165186321358282 kcal/mol.
Ar 0.3187469723272909 -0.2509075110389656 -0.6167671627294904
Ar 4.1878375213073245 -0.4492258091790877 -0.06181347305664148
Ar 1.8801605999019118 3.3472060331245217 -0.43833813042451203
Ar 2.113403071197939 1.1078570387607924 2.636813363275807
4
 Step: 78. Total Energy: -3.1568183840988686 kcal/mol.
Ar 0.3187469723272909 -0.2509075110389656 -0.6167671627294904
Ar 4.1878375213073245 -0.4492258091790877 -0.06181347305664148
Ar 1.881061963538479 3.238080592288279 -0.3068572836995037
Ar 2.113403071197939 1.1078570387607924 2.636813363275807
4
 Step: 80. Total Energy: -3.1530873551264995 kcal/mol.
Ar 0.25788431990984584 -0.12048677652279255 -0.5029722605913413
Ar 4.1878375213073245 -0.4492258091790877 -0.06181347305664148
Ar 1.881061963538479 3.238080592288279 -0.3068572836995037
Ar 2.113403071197939 1.1078570387607924 2.636813363275807
4
 Step: 81. Total Energy: -3.180181198353552 kcal/mol.
Ar 0.25788431990984584 -0.12048677652279255 -0.5029722605913413
Ar 4.1878375213073245 -0.4492258091790877 -0.06181347305664148
Ar 2.070637861159471 3.355124573803078 -0.2881862117465802
Ar 2.113403071197939 1.1078570387607924 2.636813363275807
4
 Step: 82. Total Energy: -3.223367533299155 kcal/mol.
Ar 0.25788431990984584 -0.12048677652279255 -0.5029722605913413
Ar 4.012084989323385 -0.29962667104541385 -0.11129201171312986
Ar 2.070637861159471 3.355124573803078 -0.2881862117465802
Ar 2.113403071197939 1.1078570387607924 2.636813363275807
4
 Step: 83. Total Energy: -3.141741156291998 kcal/mol.
Ar 0.25788431990984584 -0.12048677652279255 -0.5029722605913413
Ar 4.012084989323385 -0.29962667104541385 -0.11129201171312986
Ar 1.9055588118857951 3.4692909967930445 -0.18526222018222321
Ar 2.113403071197939 1.1078570387607924 2.636813363275807
4
 Step: 84. Total Energy: -3.1261655392704935 kcal/mol.
Ar 0.25788431990984584 -0.12048677652279255 -0.5029722605913413
Ar 4.192400898304227 -0.23099190756833887 -0.043764078813819496
Ar 1.9055588118857951 3.4692909967930445 -0.18526222018222321
Ar 2.113403071197939 1.1078570387607924 2.636813363275807
4
 Step: 85. Total Energy: -3.205087674859901 kcal/mol.
Ar 0.25788431990984584 -0.12048677652279255 -0.5029722605913413
Ar 4.192400898304227 -0.23099190756833887 -0.043764078813819496
Ar 1.9055588118857951 3.4692909967930445 -0.18526222018222321
Ar 1.956980821490463 1.1207691984113457 2.7579686720206156
4
 Step: 86. Total Energy: -3.147210910527854 kcal/mol.
Ar 0.25788431990984584 -0.12048677652279255 -0.5029722605913413
Ar 4.392004544184152 -0.04257409672879153 0.05647560990125211
Ar 1.9055588118857951 3.4692909967930445 -0.18526222018222321
Ar 1.956980821490463 1.1207691984113457 2.7579686720206156
4
 Step: 87. Total Energy: -3.2802743399098735 kcal/mol.
Ar 0.25788431990984584 -0.12048677652279255 -0.5029722605913413
Ar 4.198700799468861 0.011663830360867933 -0.057092380369834994
Ar 1.9055588118857951 3.4692909967930445 -0.18526222018222321
Ar 1.956980821490463 1.1207691984113457 2.7579686720206156
4
 Step: 88. Total Energy: -3.3028392888206373 kcal/mol.
Ar 0.25788431990984584 -0.12048677652279255 -0.5029722605913413
Ar 4.198700799468861 0.011663830360867933 -0.057092380369834994
Ar 2.031445957854937 3.451590078321748 -0.21522315365278766
Ar 1.956980821490463 1.1207691984113457 2.7579686720206156
4
 Step: 90. Total Energy: -3.2966934103411054 kcal/mol.
Ar 0.25788431990984584 -0.12048677652279255 -0.5029722605913413
Ar 4.198700799468861 0.011663830360867933 -0.057092380369834994
Ar 2.031445957854937 3.451590078321748 -0.21522315365278766
Ar 1.8869155299853533 1.0574789879125344 2.8441581407608307
4
 Step: 92. Total Energy: -3.2976646187675813 kcal/mol.
Ar 0.292050337061892 -0.11068297018012013 -0.5784823909503614
Ar 4.198700799468861 0.011663830360867933 -0.057092380369834994
Ar 2.031445957854937 3.451590078321748 -0.21522315365278766
Ar 1.8869155299853533 1.0574789879125344 2.8441581407608307
4
 Step: 94. Total Energy: -3.294526991453053 kcal/mol.
Ar 0.292050337061892 -0.11068297018012013 -0.5784823909503614
Ar 4.198700799468861 0.011663830360867933 -0.057092380369834994
Ar 2.031445957854937 3.451590078321748 -0.21522315365278766
Ar 1.75747015577356 1.225606054214862 2.7531457333089664
4
 Step: 95. Total Energy: -3.315329819409501 kcal/mol.
Ar 0.292050337061892 -0.11068297018012013 -0.5784823909503614
Ar 4.198700799468861 0.011663830360867933 -0.057092380369834994
Ar 2.031445957854937 3.451590078321748 -0.21522315365278766
Ar 1.7252989663806337 1.076030240733264 2.776221278860962
4
 Step: 96. Total Energy: -3.3669467476529786 kcal/mol.
Ar 0.292050337061892 -0.11068297018012013 -0.5784823909503614
Ar 4.110202579549107 0.050043257532520896 -0.00899571385038131
Ar 2.031445957854937 3.451590078321748 -0.21522315365278766
Ar 1.7252989663806337 1.076030240733264 2.776221278860962
4
 Step: 97. Total Energy: -3.351477416265745 kcal/mol.
Ar 0.3662587005944848 -0.15788327068016636 -0.4584484875204986
Ar 4.110202579549107 0.050043257532520896 -0.00899571385038131
Ar 2.031445957854937 3.451590078321748 -0.21522315365278766
Ar 1.7252989663806337 1.076030240733264 2.776221278860962
4
 Step: 98. Total Energy: -3.2715689891719366 kcal/mol.
Ar 0.3662587005944848 -0.15788327068016636 -0.4584484875204986
Ar 4.039631915807344 0.03255530018076305 0.18637708606341916
Ar 2.031445957854937 3.451590078321748 -0.21522315365278766
Ar 1.7252989663806337 1.076030240733264 2.776221278860962
4
 Step: 102. Total Energy: -3.286570483125285 kcal/mol.
Ar 0.3662587005944848 -0.15788327068016636 -0.4584484875204986
Ar 4.039631915807344 0.03255530018076305 0.18637708606341916
Ar 2.031445957854937 3.451590078321748 -0.21522315365278766
Ar 1.6057407882321222 0.88066778325602 2.9463293990423582
4
 Step: 103. Total Energy: -3.255600522829759 kcal/mol.
Ar 0.3727379833480565 -0.05995703701227881 -0.3655738344238234
Ar 4.039631915807344 0.03255530018076305 0.18637708606341916
Ar 2.031445957854937 3.451590078321748 -0.21522315365278766
Ar 1.6057407882321222 0.88066778325602 2.9463293990423582
4
 Step: 104. Total Energy: -3.2592820150074697 kcal/mol.
Ar 0.3727379833480565 -0.05995703701227881 -0.3655738344238234
Ar 4.039631915807344 0.03255530018076305 0.18637708606341916
Ar 2.0846975076914953 3.408497400386512 -0.2888402904935371
Ar 1.6057407882321222 0.88066778325602 2.9463293990423582
4
 Step: 106. Total Energy: -3.282087233162172 kcal/mol.
Ar 0.3727379833480565 -0.05995703701227881 -0.3655738344238234
Ar 4.039631915807344 0.03255530018076305 0.18637708606341916
Ar 1.9200716836923442 3.2110109028676406 -0.13197777564127672
Ar 1.6057407882321222 0.88066778325602 2.9463293990423582
4
 Step: 107. Total Energy: -3.30329848246653 kcal/mol.
Ar 0.3727379833480565 -0.05995703701227881 -0.3655738344238234
Ar 4.039631915807344 0.03255530018076305 0.18637708606341916
Ar 1.9510040958523949 3.2104688047188428 0.002131041519695398
Ar 1.6057407882321222 0.88066778325602 2.9463293990423582
4
 Step: 109. Total Energy: -3.2524610393220357 kcal/mol.
Ar 0.3362082303193014 -0.11663902201059037 -0.23698908118451334
Ar 4.039631915807344 0.03255530018076305 0.18637708606341916
Ar 1.9510040958523949 3.2104688047188428 0.002131041519695398
Ar 1.6057407882321222 0.88066778325602 2.9463293990423582
4
 Step: 110. Total Energy: -3.239193177974417 kcal/mol.
Ar 0.3362082303193014 -0.11663902201059037 -0.23698908118451334
Ar 4.039631915807344 0.03255530018076305 0.18637708606341916
Ar 2.130395357227793 3.347768646708647 -0.1313341905603969
Ar 1.6057407882321222 0.88066778325602 2.9463293990423582
4
 Step: 112. Total Energy: -3.248965868112946 kcal/mol.
Ar 0.3362082303193014 -0.11663902201059037 -0.23698908118451334
Ar 4.039631915807344 0.03255530018076305 0.18637708606341916
Ar 2.2466256911003475 3.2823386399921244 0.03679086226564482
Ar 1.6057407882321222 0.88066778325602 2.9463293990423582
4
 Step: 113. Total Energy: -3.1583592162180674 kcal/mol.
Ar 0.3362082303193014 -0.11663902201059037 -0.23698908118451334
Ar 4.039631915807344 0.03255530018076305 0.18637708606341916
Ar 2.2298781882008036 3.1408000549995196 0.05561557210150758
Ar 1.6057407882321222 0.88066778325602 2.9463293990423582
4
 Step: 114. Total Energy: -3.3118249613041675 kcal/mol.
Ar 0.3362082303193014 -0.11663902201059037 -0.23698908118451334
Ar 4.039631915807344 0.03255530018076305 0.18637708606341916
Ar 2.2298781882008036 3.1408000549995196 0.05561557210150758
Ar 1.7229421234003586 0.9672479839896074 3.1215382668980745
4
 Step: 116. Total Energy: -3.3107215330398025 kcal/mol.
Ar 0.3362082303193014 -0.11663902201059037 -0.23698908118451334
Ar 4.039631915807344 0.03255530018076305 0.18637708606341916
Ar 2.2298781882008036 3.1408000549995196 0.05561557210150758
Ar 1.7921172794719402 0.9044665279738648 3.0963769174017495
4
 Step: 117. Total Energy: -3.2844696347070017 kcal/mol.
Ar 0.3362082303193014 -0.11663902201059037 -0.23698908118451334
Ar 4.039631915807344 0.03255530018076305 0.18637708606341916
Ar 2.2298781882008036 3.1408000549995196 0.05561557210150758
Ar 1.885127278629416 0.7243338690121834 3.1421612824837326
4
 Step: 118. Total Energy: -3.2874566999179966 kcal/mol.
Ar 0.3362082303193014 -0.11663902201059037 -0.23698908118451334
Ar 3.983456945628073 -0.052689301620699625 0.21902234310561555
Ar 2.2298781882008036 3.1408000549995196 0.05561557210150758
Ar 1.885127278629416 0.7243338690121834 3.1421612824837326
4
 Step: 119. Total Energy: -3.2993341080165854 kcal/mol.
Ar 0.3362082303193014 -0.11663902201059037 -0.23698908118451334
Ar 3.983456945628073 -0.052689301620699625 0.21902234310561555
Ar 2.3243703969203415 3.2810991787500825 0.12727386980847527
Ar 1.885127278629416 0.7243338690121834 3.1421612824837326
4
 Step: 120. Total Energy: -3.3300065581501803 kcal/mol.
Ar 0.3362082303193014 -0.11663902201059037 -0.23698908118451334
Ar 3.983456945628073 -0.052689301620699625 0.21902234310561555
Ar 2.3243703969203415 3.2810991787500825 0.12727386980847527
Ar 1.932786644373568 0.9181786940304136 3.200425572975649
4
 Step: 121. Total Energy: -3.3175626344327793 kcal/mol.
Ar 0.3362082303193014 -0.11663902201059037 -0.23698908118451334
Ar 4.14835362361795 0.1416098095545701 0.22227835108336455
Ar 2.3243703969203415 3.2810991787500825 0.12727386980847527
Ar 1.932786644373568 0.9181786940304136 3.200425572975649
4
 Step: 123. Total Energy: -3.3470312780205544 kcal/mol.
Ar 0.3362082303193014 -0.11663902201059037 -0.23698908118451334
Ar 4.237920742880099 0.11182444070985764 0.20688972822220167
Ar 2.3243703969203415 3.2810991787500825 0.12727386980847527
Ar 1.932786644373568 0.9181786940304136 3.200425572975649
4
 Step: 124. Total Energy: -3.323486693125723 kcal/mol.
Ar 0.3362082303193014 -0.11663902201059037 -0.23698908118451334
Ar 4.237920742880099 0.11182444070985764 0.20688972822220167
Ar 2.2048470035938097 3.13842044035407 -0.05289750009414282
Ar 1.932786644373568 0.9181786940304136 3.200425572975649
4
 Step: 125. Total Energy: -3.3489845903281212 kcal/mol.
Ar 0.43887248960808245 -0.3034827826155527 -0.1705839565995732
Ar 4.237920742880099 0.11182444070985764 0.20688972822220167
Ar 2.2048470035938097 3.13842044035407 -0.05289750009414282
Ar 1.932786644373568 0.9181786940304136 3.200425572975649
4
 Step: 126. Total Energy: -3.2861113185371673 kcal/mol.
Ar 0.43887248960808245 -0.3034827826155527 -0.1705839565995732
Ar 4.237920742880099 0.11182444070985764 0.20688972822220167
Ar 2.2048470035938097 3.13842044035407 -0.05289750009414282
Ar 1.7628006059110644 0.9149304656773964 3.274001945587197
4
 Step: 127. Total Energy: -3.2948194946186704 kcal/mol.
Ar 0.43887248960808245 -0.3034827826155527 -0.1705839565995732
Ar 4.389650376916187 0.007434439681081206 0.3325837817839933
Ar 2.2048470035938097 3.13842044035407 -0.05289750009414282
Ar 1.7628006059110644 0.9149304656773964 3.274001945587197
4
 Step: 128. Total Energy: -3.3498642944418684 kcal/mol.
Ar 0.43887248960808245 -0.3034827826155527 -0.1705839565995732
Ar 4.266733180757761 -0.08038764720480762 0.3670982353209571
Ar 2.2048470035938097 3.13842044035407 -0.05289750009414282
Ar 1.7628006059110644 0.9149304656773964 3.274001945587197
4
 Step: 129. Total Energy: -3.355360213102769 kcal/mol.
Ar 0.43365729760112925 -0.3121902780432958 -0.08910122484845873
Ar 4.266733180757761 -0.08038764720480762 0.3670982353209571
Ar 2.2048470035938097 3.13842044035407 -0.05289750009414282
Ar 1.7628006059110644 0.9149304656773964 3.274001945587197
4
 Step: 131. Total Energy: -3.206018774844264 kcal/mol.
Ar 0.6010455956757785 -0.2048584685731003 0.059487209517441464
Ar 4.266733180757761 -0.08038764720480762 0.3670982353209571
Ar 2.2048470035938097 3.13842044035407 -0.05289750009414282
Ar 1.7628006059110644 0.9149304656773964 3.274001945587197
4
 Step: 132. Total Energy: -2.948695383264681 kcal/mol.
Ar 0.7511174725776153 -0.28045693520740395 0.106125515941414
Ar 4.266733180757761 -0.08038764720480762 0.3670982353209571
Ar 2.2048470035938097 3.13842044035407 -0.05289750009414282
Ar 1.7628006059110644 0.9149304656773964 3.274001945587197
4
 Step: 133. Total Energy: -3.0663651352777697 kcal/mol.
Ar 0.7511174725776153 -0.28045693520740395 0.106125515941414
Ar 4.416665024347004 -0.1793982569493926 0.48089002378780704
Ar 2.2048470035938097 3.13842044035407 -0.05289750009414282
Ar 1.7628006059110644 0.9149304656773964 3.274001945587197
4
 Step: 134. Total Energy: -3.060539324830722 kcal/mol.
Ar 0.8610797542345205 -0.2802688925923715 -0.001506184669549368
Ar 4.416665024347004 -0.1793982569493926 0.48089002378780704
Ar 2.2048470035938097 3.13842044035407 -0.05289750009414282
Ar 1.7628006059110644 0.9149304656773964 3.274001945587197
4
 Step: 135. Total Energy: -3.1432076930357264 kcal/mol.
Ar 0.7003749652996918 -0.14607434629706095 -0.027217604587739933
Ar 4.416665024347004 -0.1793982569493926 0.48089002378780704
Ar 2.2048470035938097 3.13842044035407 -0.05289750009414282
Ar 1.7628006059110644 0.9149304656773964 3.274001945587197
4
 Step: 136. Total Energy: -3.174653396832905 kcal/mol.
Ar 0.7003749652996918 -0.14607434629706095 -0.027217604587739933
Ar 4.302436962955861 -0.0760612847588435 0.633312779001995
Ar 2.2048470035938097 3.13842044035407 -0.05289750009414282
Ar 1.7628006059110644 0.9149304656773964 3.274001945587197
4
 Step: 138. Total Energy: -3.1968090059574505 kcal/mol.
Ar 0.8531858959970801 -0.3088307842984269 -0.19731485930657605
Ar 4.302436962955861 -0.0760612847588435 0.633312779001995
Ar 2.2048470035938097 3.13842044035407 -0.05289750009414282
Ar 1.7628006059110644 0.9149304656773964 3.274001945587197
4
 Step: 141. Total Energy: -3.182528513058833 kcal/mol.
Ar 0.8531858959970801 -0.3088307842984269 -0.19731485930657605
Ar 4.302436962955861 -0.0760612847588435 0.633312779001995
Ar 2.2048470035938097 3.13842044035407 -0.05289750009414282
Ar 1.8132375196047448 0.8668629021108625 3.2530964687765365
4
 Step: 143. Total Energy: -3.1861912701955886 kcal/mol.
Ar 0.8531858959970801 -0.3088307842984269 -0.19731485930657605
Ar 4.302436962955861 -0.0760612847588435 0.633312779001995
Ar 2.305538560771398 3.0491222103445126 -0.011989041572538772
Ar 1.8132375196047448 0.8668629021108625 3.2530964687765365
4
 Step: 144. Total Energy: -3.2062806202950123 kcal/mol.
Ar 0.8531858959970801 -0.3088307842984269 -0.19731485930657605
Ar 4.302436962955861 -0.0760612847588435 0.633312779001995
Ar 2.3423499970447805 3.0685901724574878 0.017272291241941323
Ar 1.8132375196047448 0.8668629021108625 3.2530964687765365
4
 Step: 146. Total Energy: -3.331463567991416 kcal/mol.
Ar 0.8531858959970801 -0.3088307842984269 -0.19731485930657605
Ar 4.4097108281514386 -0.11175148959111597 0.8054867901419649
Ar 2.3423499970447805 3.0685901724574878 0.017272291241941323
Ar 1.8132375196047448 0.8668629021108625 3.2530964687765365
4
 Step: 149. Total Energy: -3.268325463965785 kcal/mol.
Ar 0.8531858959970801 -0.3088307842984269 -0.19731485930657605
Ar 4.4097108281514386 -0.11175148959111597 0.8054867901419649
Ar 2.4640261468644886 3.147339989659874 -0.18250888027047707
Ar 1.8132375196047448 0.8668629021108625 3.2530964687765365
4
 Step: 150. Total Energy: -3.2527206222742113 kcal/mol.
Ar 0.8531858959970801 -0.3088307842984269 -0.19731485930657605
Ar 4.4097108281514386 -0.11175148959111597 0.8054867901419649
Ar 2.4640261468644886 3.147339989659874 -0.18250888027047707
Ar 1.8432180658970452 0.9957399963408358 3.100882923234824
4
 Step: 151. Total Energy: -3.270434963558269 kcal/mol.
Ar 0.7981524889061832 -0.41538053987842605 -0.17477055035056835
Ar 4.4097108281514386 -0.11175148959111597 0.8054867901419649
Ar 2.4640261468644886 3.147339989659874 -0.18250888027047707
Ar 1.8432180658970452 0.9957399963408358 3.100882923234824
4
 Step: 152. Total Energy: -3.322135318374305 kcal/mol.
Ar 0.7981524889061832 -0.41538053987842605 -0.17477055035056835
Ar 4.412907622102544 -0.191184864274682 0.6677868655871031
Ar 2.4640261468644886 3.147339989659874 -0.18250888027047707
Ar 1.8432180658970452 0.9957399963408358 3.100882923234824
4
 Step: 153. Total Energy: -3.3208556658271644 kcal/mol.
Ar 0.7981524889061832 -0.41538053987842605 -0.17477055035056835
Ar 4.412907622102544 -0.191184864274682 0.6677868655871031
Ar 2.4640261468644886 3.147339989659874 -0.18250888027047707
Ar 1.9737043296075822 1.18153646459554 3.0182509395782824
4
 Step: 155. Total Energy: -3.329617998650967 kcal/mol.
Ar 0.7981524889061832 -0.41538053987842605 -0.17477055035056835
Ar 4.412907622102544 -0.191184864274682 0.6677868655871031
Ar 2.3223586317257987 2.9761288662262038 -0.3522196202044615
Ar 1.9737043296075822 1.18153646459554 3.0182509395782824
4
 Step: 156. Total Energy: -3.3185852485646854 kcal/mol.
Ar 0.7981524889061832 -0.41538053987842605 -0.17477055035056835
Ar 4.412907622102544 -0.191184864274682 0.6677868655871031
Ar 2.3223586317257987 2.9761288662262038 -0.3522196202044615
Ar 2.0602017110579736 1.1777519403849426 3.2064166757809853
4
 Step: 158. Total Energy: -3.17862274311622 kcal/mol.
Ar 0.7981524889061832 -0.41538053987842605 -0.17477055035056835
Ar 4.271400551559972 -0.11231274146036296 0.5631432031819451