4
 Step: 0. Total Energy: -1.640111587269907 kcal/mol.
Ar 0.0 0.0 0.0
Ar 4.0 0.0 0.0
Ar 8.0 0.0 0.0
Ar 12.0 0.0 0.0
4
 Step: 0. Total Energy: -1.640111587269907 kcal/mol.
Ar 0.0 0.0 0.0
Ar 4.0 0.0 0.0
Ar 8.0 0.0 0.0
Ar 12.0 0.0 0.0
