4
 Step: 1. Total Energy: 6.863224867448256 kcal/mol.
Ar 0.0 0.0 0.0
Ar 4.0 0.0 0.0
Ar 2.0 3.46 0.0
Ar 1.999987842024296 1.435980756607128 2.1540662534902575
4
 Step: 2. Total Energy: 3.269957448674639 kcal/mol.
Ar 0.0 0.0 0.0
Ar 4.0 0.0 0.0
Ar 2.053361616301788 3.5394324425996277 -0.09622142965092069
Ar 1.999987842024296 1.435980756607128 2.1540662534902575
4
 Step: 3. Total Energy: 2.560756961995561 kcal/mol.
Ar 0.0 0.0 0.0
Ar 4.09436291126702 -0.14504389960437672 -0.03187699326631127
Ar 2.053361616301788 3.5394324425996277 -0.09622142965092069
Ar 1.999987842024296 1.435980756607128 2.1540662534902575
4
 Step: 5. Total Energy: 2.57252196026069 kcal/mol.
Ar 0.0 0.0 0.0
Ar 4.002951286726464 -0.023235601700080516 -0.1584731265173211
Ar 2.053361616301788 3.5394324425996277 -0.09622142965092069
Ar 1.999987842024296 1.435980756607128 2.1540662534902575
4
 Step: 6. Total Energy: 2.2016608326137694 kcal/mol.
Ar 0.0 0.0 0.0
Ar 4.186548297132624 0.03118444170982801 -0.2768673848472917
Ar 2.053361616301788 3.5394324425996277 -0.09622142965092069
Ar 1.999987842024296 1.435980756607128 2.1540662534902575
4
 Step: 7. Total Energy: 1.814530947618634 kcal/mol.
Ar -0.11813648130027042 0.12221644438593787 -0.05711409857392816
Ar 4.186548297132624 0.03118444170982801 -0.2768673848472917
Ar 2.053361616301788 3.5394324425996277 -0.09622142965092069
Ar 1.999987842024296 1.435980756607128 2.1540662534902575
4
 Step: 8. Total Energy: 1.4181358737610834 kcal/mol.
Ar 0.051913666460561794 -0.005530124015813931 -0.23119095589973795
Ar 4.186548297132624 0.03118444170982801 -0.2768673848472917
Ar 2.053361616301788 3.5394324425996277 -0.09622142965092069
Ar 1.999987842024296 1.435980756607128 2.1540662534902575
4
 Step: 9. Total Energy: 1.4212292885336024 kcal/mol.
Ar 0.13020215490546788 -0.11365983904456567 -0.22251542739604857
Ar 4.186548297132624 0.03118444170982801 -0.2768673848472917
Ar 2.053361616301788 3.5394324425996277 -0.09622142965092069
Ar 1.999987842024296 1.435980756607128 2.1540662534902575
4
 Step: 10. Total Energy: -1.3956487877902644 kcal/mol.
Ar 0.13020215490546788 -0.11365983904456567 -0.22251542739604857
Ar 4.186548297132624 0.03118444170982801 -0.2768673848472917
Ar 1.8652450479019538 3.7065288769196205 -0.26609378011420226
Ar 1.999987842024296 1.435980756607128 2.1540662534902575
4
 Step: 11. Total Energy: -2.0202015505974797 kcal/mol.
Ar 0.13020215490546788 -0.11365983904456567 -0.22251542739604857
Ar 4.186548297132624 0.03118444170982801 -0.2768673848472917
Ar 1.8652450479019538 3.7065288769196205 -0.26609378011420226
Ar 2.1478287168035908 1.4909493132898803 2.2396266390485393
4
 Step: 12. Total Energy: -1.968726133026734 kcal/mol.
Ar 0.13020215490546788 -0.11365983904456567 -0.22251542739604857
Ar 4.349254160120149 0.016901478017292637 -0.1802433630479563
Ar 1.8652450479019538 3.7065288769196205 -0.26609378011420226
Ar 2.1478287168035908 1.4909493132898803 2.2396266390485393
4
 Step: 14. Total Energy: -1.9806627702936443 kcal/mol.
Ar 0.13020215490546788 -0.11365983904456567 -0.22251542739604857
Ar 4.5390172970202665 0.11777539258990821 -0.2540977625007609
Ar 1.8652450479019538 3.7065288769196205 -0.26609378011420226
Ar 2.1478287168035908 1.4909493132898803 2.2396266390485393
4
 Step: 15. Total Energy: -1.6418032684582708 kcal/mol.
Ar 0.13020215490546788 -0.11365983904456567 -0.22251542739604857
Ar 4.5390172970202665 0.11777539258990821 -0.2540977625007609
Ar 1.8652450479019538 3.7065288769196205 -0.26609378011420226
Ar 2.079889020216529 1.3294260189162328 2.145894323554921
4
 Step: 17. Total Energy: -1.894934860345962 kcal/mol.
Ar 0.13020215490546788 -0.11365983904456567 -0.22251542739604857
Ar 4.5390172970202665 0.11777539258990821 -0.2540977625007609
Ar 1.8599046091800422 3.655116322073955 -0.40134209994163567
Ar 2.079889020216529 1.3294260189162328 2.145894323554921
4
 Step: 19. Total Energy: -1.874285333933654 kcal/mol.
Ar 0.13020215490546788 -0.11365983904456567 -0.22251542739604857
Ar 4.539774324914839 0.2828843215393238 -0.23575604444502146
Ar 1.8599046091800422 3.655116322073955 -0.40134209994163567
Ar 2.079889020216529 1.3294260189162328 2.145894323554921
4
 Step: 21. Total Energy: -2.2590741642397982 kcal/mol.
Ar 0.12636053767883157 -0.25359074834526096 -0.3592061764783038
Ar 4.539774324914839 0.2828843215393238 -0.23575604444502146
Ar 1.8599046091800422 3.655116322073955 -0.40134209994163567
Ar 2.079889020216529 1.3294260189162328 2.145894323554921
4
 Step: 22. Total Energy: -2.255970020538019 kcal/mol.
Ar 0.12636053767883157 -0.25359074834526096 -0.3592061764783038
Ar 4.481875183281123 0.1338591839642565 -0.2267183702594753
Ar 1.8599046091800422 3.655116322073955 -0.40134209994163567
Ar 2.079889020216529 1.3294260189162328 2.145894323554921
4
 Step: 23. Total Energy: -2.2779088897958992 kcal/mol.
Ar -0.0179025124267482 -0.4289341440432437 -0.44400055743505296
Ar 4.481875183281123 0.1338591839642565 -0.2267183702594753
Ar 1.8599046091800422 3.655116322073955 -0.40134209994163567
Ar 2.079889020216529 1.3294260189162328 2.145894323554921
4
 Step: 24. Total Energy: -2.444255305263196 kcal/mol.
Ar -0.0179025124267482 -0.4289341440432437 -0.44400055743505296
Ar 4.481875183281123 0.1338591839642565 -0.2267183702594753
Ar 1.854322580285739 3.6856324337298543 -0.4830493286687412
Ar 2.079889020216529 1.3294260189162328 2.145894323554921
4
 Step: 25. Total Energy: -2.444256623146993 kcal/mol.
Ar -0.0179025124267482 -0.4289341440432437 -0.44400055743505296
Ar 4.481875183281123 0.1338591839642565 -0.2267183702594753
Ar 1.8423902453190737 3.630310315169451 -0.507044812013843
Ar 2.079889020216529 1.3294260189162328 2.145894323554921
4
 Step: 26. Total Energy: -2.7168671772294504 kcal/mol.
Ar -0.0179025124267482 -0.4289341440432437 -0.44400055743505296
Ar 4.481875183281123 0.1338591839642565 -0.2267183702594753
Ar 1.8423902453190737 3.630310315169451 -0.507044812013843
Ar 2.076024688494932 1.3488639986471156 2.336979449373843
4
 Step: 27. Total Energy: -2.6580219912466685 kcal/mol.
Ar -0.0179025124267482 -0.4289341440432437 -0.44400055743505296
Ar 4.481875183281123 0.1338591839642565 -0.2267183702594753
Ar 1.8423902453190737 3.630310315169451 -0.507044812013843
Ar 2.117230960613019 1.1945730929643352 2.2597667123984246
4
 Step: 29. Total Energy: -2.6220050112886764 kcal/mol.
Ar -0.0179025124267482 -0.4289341440432437 -0.44400055743505296
Ar 4.481875183281123 0.1338591839642565 -0.2267183702594753
Ar 1.79470060415654 3.707839379234193 -0.48919570139216495
Ar 2.117230960613019 1.1945730929643352 2.2597667123984246
4
 Step: 31. Total Energy: -2.61008524324384 kcal/mol.
Ar -0.06368445928850905 -0.40073871758396745 -0.40568494403512545
Ar 4.481875183281123 0.1338591839642565 -0.2267183702594753
Ar 1.79470060415654 3.707839379234193 -0.48919570139216495
Ar 2.117230960613019 1.1945730929643352 2.2597667123984246
4
 Step: 32. Total Energy: -2.3333797149163584 kcal/mol.
Ar -0.06368445928850905 -0.40073871758396745 -0.40568494403512545
Ar 4.394251283201037 0.14388301238663714 -0.09258886371008343
Ar 1.79470060415654 3.707839379234193 -0.48919570139216495
Ar 2.117230960613019 1.1945730929643352 2.2597667123984246
4
 Step: 33. Total Energy: -2.317954346876192 kcal/mol.
Ar -0.06368445928850905 -0.40073871758396745 -0.40568494403512545
Ar 4.437771151914638 0.28873753988718104 -0.09787109397510765
Ar 1.79470060415654 3.707839379234193 -0.48919570139216495
Ar 2.117230960613019 1.1945730929643352 2.2597667123984246
4
 Step: 36. Total Energy: -2.4603977533681833 kcal/mol.
Ar -0.06368445928850905 -0.40073871758396745 -0.40568494403512545
Ar 4.515424456455335 0.36758537102351097 -0.1319025158003182
Ar 1.79470060415654 3.707839379234193 -0.48919570139216495
Ar 2.117230960613019 1.1945730929643352 2.2597667123984246
4
 Step: 37. Total Energy: -2.482092820743048 kcal/mol.
Ar -0.06368445928850905 -0.40073871758396745 -0.40568494403512545
Ar 4.515424456455335 0.36758537102351097 -0.1319025158003182
Ar 1.674518098585788 3.5805134699552688 -0.4580074768810075
Ar 2.117230960613019 1.1945730929643352 2.2597667123984246
4
 Step: 38. Total Energy: -2.5667839360031732 kcal/mol.
Ar -0.06368445928850905 -0.40073871758396745 -0.40568494403512545
Ar 4.4510619117279315 0.20782965910333706 -0.1917027057823808
Ar 1.674518098585788 3.5805134699552688 -0.4580074768810075
Ar 2.117230960613019 1.1945730929643352 2.2597667123984246
4
 Step: 39. Total Energy: -2.4528883480451458 kcal/mol.
Ar -0.06368445928850905 -0.40073871758396745 -0.40568494403512545
Ar 4.4510619117279315 0.20782965910333706 -0.1917027057823808
Ar 1.674518098585788 3.5805134699552688 -0.4580074768810075
Ar 2.2226167815289726 1.0687564059352952 2.3039872638748444
4
 Step: 40. Total Energy: -2.8012492012734485 kcal/mol.
Ar -0.06368445928850905 -0.40073871758396745 -0.40568494403512545
Ar 4.4510619117279315 0.20782965910333706 -0.1917027057823808
Ar 1.674518098585788 3.5805134699552688 -0.4580074768810075
Ar 2.0567675163548285 1.067295543876726 2.497017967855014
4
 Step: 42. Total Energy: -2.7899775266418003 kcal/mol.
Ar -0.06368445928850905 -0.40073871758396745 -0.40568494403512545
Ar 4.4086996927114175 0.1273218357074517 -0.16423837184727713
Ar 1.674518098585788 3.5805134699552688 -0.4580074768810075
Ar 2.0567675163548285 1.067295543876726 2.497017967855014
4
 Step: 43. Total Energy: -2.838933126923767 kcal/mol.
Ar 0.011140827315002572 -0.3844401111865883 -0.42425071317756236
Ar 4.4086996927114175 0.1273218357074517 -0.16423837184727713
Ar 1.674518098585788 3.5805134699552688 -0.4580074768810075
Ar 2.0567675163548285 1.067295543876726 2.497017967855014
4
 Step: 44. Total Energy: -2.9191878201422368 kcal/mol.
Ar 0.011140827315002572 -0.3844401111865883 -0.42425071317756236
Ar 4.4086996927114175 0.1273218357074517 -0.16423837184727713
Ar 1.61409291889648 3.4537559703997194 -0.34923614811768966
Ar 2.0567675163548285 1.067295543876726 2.497017967855014
4
 Step: 45. Total Energy: -2.8316557372753013 kcal/mol.
Ar 0.011140827315002572 -0.3844401111865883 -0.42425071317756236
Ar 4.4086996927114175 0.1273218357074517 -0.16423837184727713
Ar 1.6974382794966696 3.5202023281466226 -0.17335385305340523
Ar 2.0567675163548285 1.067295543876726 2.497017967855014
4
 Step: 46. Total Energy: -2.9533345220588334 kcal/mol.
Ar 0.011140827315002572 -0.3844401111865883 -0.42425071317756236
Ar 4.4086996927114175 0.1273218357074517 -0.16423837184727713
Ar 1.8788804634792111 3.3625374884072916 -0.3266591321566462
Ar 2.0567675163548285 1.067295543876726 2.497017967855014
4
 Step: 49. Total Energy: -3.0250480412563845 kcal/mol.
Ar 0.011140827315002572 -0.3844401111865883 -0.42425071317756236
Ar 4.4086996927114175 0.1273218357074517 -0.16423837184727713
Ar 1.847383532344635 3.321192823641057 -0.4808141457812225
Ar 2.0567675163548285 1.067295543876726 2.497017967855014
4
 Step: 50. Total Energy: -2.7662849070333446 kcal/mol.
Ar 0.011140827315002572 -0.3844401111865883 -0.42425071317756236
Ar 4.4086996927114175 0.1273218357074517 -0.16423837184727713
Ar 1.847383532344635 3.321192823641057 -0.4808141457812225
Ar 2.077737563747932 1.086722642430951 2.3209580621531747
4
 Step: 51. Total Energy: -3.0242931357846325 kcal/mol.
Ar 0.011140827315002572 -0.3844401111865883 -0.42425071317756236
Ar 4.4086996927114175 0.1273218357074517 -0.16423837184727713
Ar 1.847383532344635 3.321192823641057 -0.4808141457812225
Ar 1.9953724191333668 1.142122466801918 2.481519091837254
4
 Step: 53. Total Energy: -3.0460265772873467 kcal/mol.
Ar 0.011140827315002572 -0.3844401111865883 -0.42425071317756236
Ar 4.4086996927114175 0.1273218357074517 -0.16423837184727713
Ar 1.847383532344635 3.321192823641057 -0.4808141457812225
Ar 1.9305804209251822 1.108166565203298 2.488606340514068
4
 Step: 55. Total Energy: -3.038562584452885 kcal/mol.
Ar 0.011140827315002572 -0.3844401111865883 -0.42425071317756236
Ar 4.4086996927114175 0.1273218357074517 -0.16423837184727713
Ar 1.847383532344635 3.321192823641057 -0.4808141457812225
Ar 1.7514159420573556 0.9832870729802133 2.6497014737329474
4
 Step: 57. Total Energy: -2.9939240408628023 kcal/mol.
Ar 0.011140827315002572 -0.3844401111865883 -0.42425071317756236
Ar 4.4086996927114175 0.1273218357074517 -0.16423837184727713
Ar 1.6849262018522921 3.310845975108178 -0.6235047105553593
Ar 1.7514159420573556 0.9832870729802133 2.6497014737329474
4
 Step: 58. Total Energy: -3.046202466969622 kcal/mol.
Ar 0.011140827315002572 -0.3844401111865883 -0.42425071317756236
Ar 4.4086996927114175 0.1273218357074517 -0.16423837184727713
Ar 1.6849262018522921 3.310845975108178 -0.6235047105553593
Ar 1.8544450747395318 1.105148690942018 2.4615318390771614
4
 Step: 59. Total Energy: -3.01895571831806 kcal/mol.
Ar 0.011140827315002572 -0.3844401111865883 -0.42425071317756236
Ar 4.4086996927114175 0.1273218357074517 -0.16423837184727713
Ar 1.6849262018522921 3.310845975108178 -0.6235047105553593
Ar 1.788840741962462 1.121940851917569 2.638815041152448
4
 Step: 60. Total Energy: -2.98212819222697 kcal/mol.
Ar 0.011140827315002572 -0.3844401111865883 -0.42425071317756236
Ar 4.37524104733215 -0.002784769028025602 -0.2725176773026394
Ar 1.6849262018522921 3.310845975108178 -0.6235047105553593
Ar 1.788840741962462 1.121940851917569 2.638815041152448
4
 Step: 61. Total Energy: -2.8314050001211024 kcal/mol.
Ar -0.13980949668396322 -0.5495814371176201 -0.2790477123162695
Ar 4.37524104733215 -0.002784769028025602 -0.2725176773026394
Ar 1.6849262018522921 3.310845975108178 -0.6235047105553593
Ar 1.788840741962462 1.121940851917569 2.638815041152448
4
 Step: 62. Total Energy: -2.89163724673479 kcal/mol.
Ar -0.13980949668396322 -0.5495814371176201 -0.2790477123162695
Ar 4.37524104733215 -0.002784769028025602 -0.2725176773026394
Ar 1.6849262018522921 3.310845975108178 -0.6235047105553593
Ar 1.9158421210691947 0.9746320651634088 2.4617008985103928
4
 Step: 64. Total Energy: -2.9091195011608835 kcal/mol.
Ar -0.13980949668396322 -0.5495814371176201 -0.2790477123162695
Ar 4.3027295376585295 0.016955165373701175 -0.18621971796387765
Ar 1.6849262018522921 3.310845975108178 -0.6235047105553593
Ar 1.9158421210691947 0.9746320651634088 2.4617008985103928
4
 Step: 65. Total Energy: -2.9070556661570945 kcal/mol.
Ar -0.13980949668396322 -0.5495814371176201 -0.2790477123162695
Ar 4.3027295376585295 0.016955165373701175 -0.18621971796387765
Ar 1.6849262018522921 3.310845975108178 -0.6235047105553593
Ar 1.9270096632434306 1.1321322100723978 2.404257113324913
4
 Step: 66. Total Energy: -3.001544515259804 kcal/mol.
Ar -0.13980949668396322 -0.5495814371176201 -0.2790477123162695
Ar 4.149642393420208 0.16904111997506532 -0.3004397974820564
Ar 1.6849262018522921 3.310845975108178 -0.6235047105553593
Ar 1.9270096632434306 1.1321322100723978 2.404257113324913
4
 Step: 69. Total Energy: -2.9604367560129496 kcal/mol.
Ar -0.13980949668396322 -0.5495814371176201 -0.2790477123162695
Ar 4.072131122821165 0.015360177129020935 -0.2389706715040797
Ar 1.6849262018522921 3.310845975108178 -0.6235047105553593
Ar 1.9270096632434306 1.1321322100723978 2.404257113324913
4
 Step: 71. Total Energy: -3.024007971196265 kcal/mol.
Ar -0.13980949668396322 -0.5495814371176201 -0.2790477123162695
Ar 4.072131122821165 0.015360177129020935 -0.2389706715040797
Ar 1.6849262018522921 3.310845975108178 -0.6235047105553593
Ar 2.02313063539935 1.3214551959604897 2.5549403879296637
4
 Step: 72. Total Energy: -3.033654404959697 kcal/mol.
Ar -0.13980949668396322 -0.5495814371176201 -0.2790477123162695
Ar 4.072131122821165 0.015360177129020935 -0.2389706715040797
Ar 1.8637231157478276 3.287877086461043 -0.61006163058745
Ar 2.02313063539935 1.3214551959604897 2.5549403879296637
4
 Step: 74. Total Energy: -3.1074298897974457 kcal/mol.
Ar -0.13980949668396322 -0.5495814371176201 -0.2790477123162695
Ar 4.072131122821165 0.015360177129020935 -0.2389706715040797
Ar 1.727504266982509 3.123714579829584 -0.6410712930007165
Ar 2.02313063539935 1.3214551959604897 2.5549403879296637
4
 Step: 75. Total Energy: -3.1070233043057254 kcal/mol.
Ar -0.012470604910822775 -0.7485811363262059 -0.15934950398404585
Ar 4.072131122821165 0.015360177129020935 -0.2389706715040797
Ar 1.727504266982509 3.123714579829584 -0.6410712930007165
Ar 2.02313063539935 1.3214551959604897 2.5549403879296637
4
 Step: 78. Total Energy: -3.0745109262204995 kcal/mol.
Ar -0.012470604910822775 -0.7485811363262059 -0.15934950398404585
Ar 4.072131122821165 0.015360177129020935 -0.2389706715040797
Ar 1.607912826166174 3.1865406817796504 -0.5993207099171531
Ar 2.02313063539935 1.3214551959604897 2.5549403879296637
4
 Step: 80. Total Energy: -3.1075033299879005 kcal/mol.
Ar 0.0106756166407935 -0.6584754566853466 -0.3498213206471505
Ar 4.072131122821165 0.015360177129020935 -0.2389706715040797
Ar 1.607912826166174 3.1865406817796504 -0.5993207099171531
Ar 2.02313063539935 1.3214551959604897 2.5549403879296637
4
 Step: 81. Total Energy: -3.1149726909231648 kcal/mol.
Ar 0.0106756166407935 -0.6584754566853466 -0.3498213206471505
Ar 4.072131122821165 0.015360177129020935 -0.2389706715040797
Ar 1.781960554680421 3.2093969587890276 -0.6698688201023608
Ar 2.02313063539935 1.3214551959604897 2.5549403879296637
4
 Step: 82. Total Energy: -3.118281197612674 kcal/mol.
Ar 0.0106756166407935 -0.6584754566853466 -0.3498213206471505
Ar 4.072131122821165 0.015360177129020935 -0.2389706715040797
Ar 1.8964738970331205 3.194500616514998 -0.6978155659647362
Ar 2.02313063539935 1.3214551959604897 2.5549403879296637
4
 Step: 83. Total Energy: -3.1044335249078463 kcal/mol.
Ar 0.0106756166407935 -0.6584754566853466 -0.3498213206471505
Ar 4.072131122821165 0.015360177129020935 -0.2389706715040797
Ar 1.8964738970331205 3.194500616514998 -0.6978155659647362
Ar 2.005863828829778 1.244101574857106 2.7148739976030467
4
 Step: 84. Total Energy: -3.0370330075567282 kcal/mol.
Ar 0.0106756166407935 -0.6584754566853466 -0.3498213206471505
Ar 4.223051695856228 0.15013381342081467 -0.2309818813338034
Ar 1.8964738970331205 3.194500616514998 -0.6978155659647362
Ar 2.005863828829778 1.244101574857106 2.7148739976030467
4
 Step: 85. Total Energy: -3.017160371748207 kcal/mol.
Ar 0.0106756166407935 -0.6584754566853466 -0.3498213206471505
Ar 4.257048561858742 0.2529698646255174 -0.16547720932082485
Ar 1.8964738970331205 3.194500616514998 -0.6978155659647362
Ar 2.005863828829778 1.244101574857106 2.7148739976030467
4
 Step: 86. Total Energy: -3.0458058605995046 kcal/mol.
Ar -0.09749818315403423 -0.5430807463336005 -0.17532359116465657
Ar 4.257048561858742 0.2529698646255174 -0.16547720932082485
Ar 1.8964738970331205 3.194500616514998 -0.6978155659647362
Ar 2.005863828829778 1.244101574857106 2.7148739976030467
4
 Step: 87. Total Energy: -2.9945329208515274 kcal/mol.
Ar -0.09749818315403423 -0.5430807463336005 -0.17532359116465657
Ar 4.296475431455533 0.42367864951275647 -0.2297346705709214
Ar 1.8964738970331205 3.194500616514998 -0.6978155659647362
Ar 2.005863828829778 1.244101574857106 2.7148739976030467
4
 Step: 88. Total Energy: -2.9477393672153913 kcal/mol.
Ar -0.09749818315403423 -0.5430807463336005 -0.17532359116465657
Ar 4.296475431455533 0.42367864951275647 -0.2297346705709214
Ar 1.8964738970331205 3.194500616514998 -0.6978155659647362
Ar 1.9671848796777884 1.197947635804608 2.8042844864574668
4
 Step: 89. Total Energy: -2.89296453882671 kcal/mol.
Ar -0.09749818315403423 -0.5430807463336005 -0.17532359116465657
Ar 4.296475431455533 0.42367864951275647 -0.2297346705709214
Ar 1.8964738970331205 3.194500616514998 -0.6978155659647362
Ar 2.1657818957072106 1.1803811579054544 2.840913478495512
4
 Step: 90. Total Energy: -2.941387171477774 kcal/mol.
Ar -0.09749818315403423 -0.5430807463336005 -0.17532359116465657
Ar 4.207564986559035 0.28408812062753536 -0.3517733864294113
Ar 1.8964738970331205 3.194500616514998 -0.6978155659647362
Ar 2.1657818957072106 1.1803811579054544 2.840913478495512
4
 Step: 92. Total Energy: -2.9323923951895883 kcal/mol.
Ar -0.09749818315403423 -0.5430807463336005 -0.17532359116465657
Ar 4.021739352916638 0.27782791255530126 -0.1846135128884533
Ar 1.8964738970331205 3.194500616514998 -0.6978155659647362
Ar 2.1657818957072106 1.1803811579054544 2.840913478495512
4
 Step: 93. Total Energy: -3.033945896948098 kcal/mol.
Ar 0.000764623468881967 -0.4867421293829113 -0.20957757639745475
Ar 4.021739352916638 0.27782791255530126 -0.1846135128884533
Ar 1.8964738970331205 3.194500616514998 -0.6978155659647362
Ar 2.1657818957072106 1.1803811579054544 2.840913478495512
4
 Step: 95. Total Energy: -3.0781187180848453 kcal/mol.
Ar 0.000764623468881967 -0.4867421293829113 -0.20957757639745475
Ar 4.021739352916638 0.27782791255530126 -0.1846135128884533
Ar 1.820630033949304 3.079521075540501 -0.5600685067057731
Ar 2.1657818957072106 1.1803811579054544 2.840913478495512
4
 Step: 97. Total Energy: -3.0410919333315154 kcal/mol.
Ar 0.10600661405525692 -0.5909502810066436 -0.3977166094401956
Ar 4.021739352916638 0.27782791255530126 -0.1846135128884533
Ar 1.820630033949304 3.079521075540501 -0.5600685067057731
Ar 2.1657818957072106 1.1803811579054544 2.840913478495512
4
 Step: 99. Total Energy: -3.0408270150231087 kcal/mol.
Ar 0.10600661405525692 -0.5909502810066436 -0.3977166094401956
Ar 4.021739352916638 0.27782791255530126 -0.1846135128884533
Ar 1.820630033949304 3.079521075540501 -0.5600685067057731
Ar 2.165348610461322 1.2546339384549712 2.894095632329849
4
 Step: 100. Total Energy: -3.0090635551787 kcal/mol.
Ar -0.06646013915158137 -0.43837864993375736 -0.3675919948209276
Ar 4.021739352916638 0.27782791255530126 -0.1846135128884533
Ar 1.820630033949304 3.079521075540501 -0.5600685067057731
Ar 2.165348610461322 1.2546339384549712 2.894095632329849
4
 Step: 101. Total Energy: -3.041563385738753 kcal/mol.
Ar -0.06646013915158137 -0.43837864993375736 -0.3675919948209276
Ar 4.021739352916638 0.27782791255530126 -0.1846135128884533
Ar 1.820630033949304 3.079521075540501 -0.5600685067057731
Ar 2.0315628095495266 1.1349788850975802 2.9176181495689004
4
 Step: 102. Total Energy: -3.074437667118215 kcal/mol.
Ar -0.06646013915158137 -0.43837864993375736 -0.3675919948209276
Ar 4.021739352916638 0.27782791255530126 -0.1846135128884533
Ar 1.6607672975213212 3.1965059755905623 -0.7107107652596557
Ar 2.0315628095495266 1.1349788850975802 2.9176181495689004
4
 Step: 103. Total Energy: -2.946812265260801 kcal/mol.
Ar -0.06646013915158137 -0.43837864993375736 -0.3675919948209276
Ar 4.021739352916638 0.27782791255530126 -0.1846135128884533
Ar 1.6607672975213212 3.1965059755905623 -0.7107107652596557
Ar 1.8831024669565688 1.2925877483057377 3.0933328662103867
4
 Step: 104. Total Energy: -3.0275625233440824 kcal/mol.
Ar -0.06646013915158137 -0.43837864993375736 -0.3675919948209276
Ar 4.021739352916638 0.27782791255530126 -0.1846135128884533
Ar 1.6607672975213212 3.1965059755905623 -0.7107107652596557
Ar 1.9130210689088796 1.134529543449558 3.0101163134006845
4
 Step: 105. Total Energy: -3.1764364182793896 kcal/mol.
Ar -0.06646013915158137 -0.43837864993375736 -0.3675919948209276
Ar 4.021739352916638 0.27782791255530126 -0.1846135128884533
Ar 1.6607672975213212 3.1965059755905623 -0.7107107652596557
Ar 1.8390081817889319 1.3060306364361 2.8276516812427808
4
 Step: 106. Total Energy: -3.1622083632227675 kcal/mol.
Ar -0.06646013915158137 -0.43837864993375736 -0.3675919948209276
Ar 4.021739352916638 0.27782791255530126 -0.1846135128884533
Ar 1.6607672975213212 3.1965059755905623 -0.7107107652596557
Ar 1.679844292853843 1.4251261219123543 2.842843828166052
4
 Step: 107. Total Energy: -3.182335731736064 kcal/mol.
Ar -0.06646013915158137 -0.43837864993375736 -0.3675919948209276
Ar 4.021739352916638 0.27782791255530126 -0.1846135128884533
Ar 1.5309948399027016 3.217036558470004 -0.6499421657270023
Ar 1.679844292853843 1.4251261219123543 2.842843828166052
4
 Step: 108. Total Energy: -3.20822090721718 kcal/mol.
Ar 0.12873944382622782 -0.5068108481897095 -0.5536237150590944
Ar 4.021739352916638 0.27782791255530126 -0.1846135128884533
Ar 1.5309948399027016 3.217036558470004 -0.6499421657270023
Ar 1.679844292853843 1.4251261219123543 2.842843828166052
4
 Step: 109. Total Energy: -3.1908122388259414 kcal/mol.
Ar 0.12873944382622782 -0.5068108481897095 -0.5536237150590944
Ar 4.035894961017255 0.1509355138050678 -0.05158372967452779
Ar 1.5309948399027016 3.217036558470004 -0.6499421657270023
Ar 1.679844292853843 1.4251261219123543 2.842843828166052
4
 Step: 110. Total Energy: -3.0938560310462093 kcal/mol.
Ar 0.05085172869002645 -0.6618681533124668 -0.4280265697817522
Ar 4.035894961017255 0.1509355138050678 -0.05158372967452779
Ar 1.5309948399027016 3.217036558470004 -0.6499421657270023
Ar 1.679844292853843 1.4251261219123543 2.842843828166052
4
 Step: 112. Total Energy: -3.137454979204431 kcal/mol.
Ar 0.05085172869002645 -0.6618681533124668 -0.4280265697817522
Ar 4.035894961017255 0.1509355138050678 -0.05158372967452779
Ar 1.5309948399027016 3.217036558470004 -0.6499421657270023
Ar 1.7770417379006629 1.3496391354186952 2.773212190317744
4
 Step: 113. Total Energy: -3.095900032213774 kcal/mol.
Ar 0.05085172869002645 -0.6618681533124668 -0.4280265697817522
Ar 4.035894961017255 0.1509355138050678 -0.05158372967452779
Ar 1.5309948399027016 3.217036558470004 -0.6499421657270023
Ar 1.9205085117319163 1.4278577764860976 2.7723209530342903
4
 Step: 114. Total Energy: -3.0134150932066213 kcal/mol.
Ar 0.05085172869002645 -0.6618681533124668 -0.4280265697817522
Ar 4.035894961017255 0.1509355138050678 -0.05158372967452779
Ar 1.5309948399027016 3.217036558470004 -0.6499421657270023
Ar 2.0278327248707213 1.6070843987885313 2.877536905553466
4
 Step: 115. Total Energy: -3.1235128912766736 kcal/mol.
Ar 0.23884305895584518 -0.6130587349329533 -0.5232345452543493
Ar 4.035894961017255 0.1509355138050678 -0.05158372967452779
Ar 1.5309948399027016 3.217036558470004 -0.6499421657270023
Ar 2.0278327248707213 1.6070843987885313 2.877536905553466
4
 Step: 116. Total Energy: -3.126457789777415 kcal/mol.
Ar 0.23884305895584518 -0.6130587349329533 -0.5232345452543493
Ar 4.0813575703344815 0.2706993118309953 -0.08269510310153982
Ar 1.5309948399027016 3.217036558470004 -0.6499421657270023
Ar 2.0278327248707213 1.6070843987885313 2.877536905553466
4
 Step: 117. Total Energy: -3.061761489608 kcal/mol.
Ar 0.23884305895584518 -0.6130587349329533 -0.5232345452543493
Ar 4.139651090743478 0.14066597641299194 0.054274869419400795
Ar 1.5309948399027016 3.217036558470004 -0.6499421657270023
Ar 2.0278327248707213 1.6070843987885313 2.877536905553466
4
 Step: 119. Total Energy: -3.032823954405549 kcal/mol.
Ar 0.23884305895584518 -0.6130587349329533 -0.5232345452543493
Ar 4.139651090743478 0.14066597641299194 0.054274869419400795
Ar 1.385529460653194 3.2592442202483016 -0.45188070478943987
Ar 2.0278327248707213 1.6070843987885313 2.877536905553466
4
 Step: 120. Total Energy: -2.966613600357516 kcal/mol.
Ar 0.11266236826265741 -0.5824831484062551 -0.5426231872075776
Ar 4.139651090743478 0.14066597641299194 0.054274869419400795
Ar 1.385529460653194 3.2592442202483016 -0.45188070478943987
Ar 2.0278327248707213 1.6070843987885313 2.877536905553466
4
 Step: 122. Total Energy: -2.9659835525884213 kcal/mol.
Ar 0.11266236826265741 -0.5824831484062551 -0.5426231872075776
Ar 4.139651090743478 0.14066597641299194 0.054274869419400795
Ar 1.385529460653194 3.2592442202483016 -0.45188070478943987
Ar 2.038123887027433 1.5851935893984812 2.7902735720355336
4
 Step: 123. Total Energy: -2.9022101512701908 kcal/mol.
Ar 0.11266236826265741 -0.5824831484062551 -0.5426231872075776
Ar 4.139651090743478 0.14066597641299194 0.054274869419400795
Ar 1.272458608991563 3.2966763836177977 -0.35436700484953415
Ar 2.038123887027433 1.5851935893984812 2.7902735720355336
4
 Step: 124. Total Energy: -2.8096956458263587 kcal/mol.
Ar 0.11266236826265741 -0.5824831484062551 -0.5426231872075776
Ar 4.139651090743478 0.14066597641299194 0.054274869419400795
Ar 1.1058894031244546 3.4416540416765824 -0.5366481241593974
Ar 2.038123887027433 1.5851935893984812 2.7902735720355336
4
 Step: 125. Total Energy: -2.797570281470338 kcal/mol.
Ar 0.11266236826265741 -0.5824831484062551 -0.5426231872075776
Ar 4.139651090743478 0.14066597641299194 0.054274869419400795
Ar 1.1058894031244546 3.4416540416765824 -0.5366481241593974
Ar 2.037427893183743 1.4294346161598517 2.7359333463234012
4
 Step: 127. Total Energy: -2.8246685314339315 kcal/mol.
Ar 0.11266236826265741 -0.5824831484062551 -0.5426231872075776
Ar 4.1487048694970134 0.12845440140839143 0.004628835957796257
Ar 1.1058894031244546 3.4416540416765824 -0.5366481241593974
Ar 2.037427893183743 1.4294346161598517 2.7359333463234012
4
 Step: 128. Total Energy: -2.925271894206356 kcal/mol.
Ar 0.11266236826265741 -0.5824831484062551 -0.5426231872075776
Ar 4.02576040044647 0.10066521782213983 -0.150379209303021
Ar 1.1058894031244546 3.4416540416765824 -0.5366481241593974
Ar 2.037427893183743 1.4294346161598517 2.7359333463234012
4
 Step: 129. Total Energy: -2.99314181003251 kcal/mol.
Ar 0.1295998080667831 -0.5153953739763325 -0.48935739127585065
Ar 4.02576040044647 0.10066521782213983 -0.150379209303021
Ar 1.1058894031244546 3.4416540416765824 -0.5366481241593974
Ar 2.037427893183743 1.4294346161598517 2.7359333463234012
4
 Step: 130. Total Energy: -2.9657999887492927 kcal/mol.
Ar 0.1295998080667831 -0.5153953739763325 -0.48935739127585065
Ar 4.02576040044647 0.10066521782213983 -0.150379209303021
Ar 1.1058894031244546 3.4416540416765824 -0.5366481241593974
Ar 2.053245295954869 1.5529557720918454 2.7808539627030204
4
 Step: 132. Total Energy: -2.978192838434797 kcal/mol.
Ar 0.1295998080667831 -0.5153953739763325 -0.48935739127585065
Ar 4.02576040044647 0.10066521782213983 -0.150379209303021
Ar 1.1058894031244546 3.4416540416765824 -0.5366481241593974
Ar 1.9634671090122988 1.732817942530837 2.6865070992491265
4
 Step: 134. Total Energy: -2.935452818665524 kcal/mol.
Ar 0.1295998080667831 -0.5153953739763325 -0.48935739127585065
Ar 4.02576040044647 0.10066521782213983 -0.150379209303021
Ar 1.3007415039905592 3.5445824603213434 -0.5192147627428074