4
 Step: 0. Total Energy: 16.628253760477214 kcal/mol.
Ar 0.0 0.0 0.0
Ar 4.0 0.0 0.0
Ar 2.0 3.46 0.0
Ar 2.0 1.53 2.03
4
 Step: 1. Total Energy: 0.39578233565251675 kcal/mol.
Ar 0.0 0.0 0.0
Ar 4.0 0.0 0.0
Ar 2.8241327182127165 3.876445743368322 -0.5739218901821252
Ar 2.0 1.53 2.03
4
 Step: 2. Total Energy: -0.8906677392514062 kcal/mol.
Ar -0.6746608217395209 0.1081048998026446 -0.5788237194484447
Ar 4.0 0.0 0.0
Ar 2.8241327182127165 3.876445743368322 -0.5739218901821252
Ar 2.0 1.53 2.03
4
 Step: 17. Total Energy: -1.7098765317963425 kcal/mol.
Ar -1.0149306672835259 -0.3237504020830424 0.14128257027130764
Ar 6.485226987228048 -0.047336155290069515 0.9245997728609592
Ar 3.711987854992016 2.192364947697337 -1.0851801128366036
Ar 0.8855172819882868 2.541504675275233 2.042266941355594
4
 Step: 21. Total Energy: -0.9059520616989054 kcal/mol.
Ar -1.2192065265322438 -1.0124567783514564 -0.40477927806417946
Ar 8.056659553166677 -1.2646303596793145 -0.3633211070985738
Ar 3.711987854992016 2.192364947697337 -1.0851801128366036
Ar 0.8855172819882868 2.541504675275233 2.042266941355594
4
 Step: 22. Total Energy: -0.8404176745086964 kcal/mol.
Ar -1.2192065265322438 -1.0124567783514564 -0.40477927806417946
Ar 8.056659553166677 -1.2646303596793145 -0.3633211070985738
Ar 3.711987854992016 2.192364947697337 -1.0851801128366036
Ar 0.5425764293245359 2.6927879593436987 1.9738049982891044
4
 Step: 23. Total Energy: -0.9634792011390433 kcal/mol.
Ar -1.2192065265322438 -1.0124567783514564 -0.40477927806417946
Ar 8.056659553166677 -1.2646303596793145 -0.3633211070985738
Ar 3.711987854992016 2.192364947697337 -1.0851801128366036
Ar 1.0206294975034245 2.097569068797143 2.17188960819826
4
 Step: 24. Total Energy: -1.1545023562297028 kcal/mol.
Ar -1.2192065265322438 -1.0124567783514564 -0.40477927806417946
Ar 8.056659553166677 -1.2646303596793145 -0.3633211070985738
Ar 2.8958469172724035 1.3879548156997537 -1.370448302272692
Ar 1.0206294975034245 2.097569068797143 2.17188960819826
4
 Step: 25. Total Energy: -0.8080503964963899 kcal/mol.
Ar -2.0683732199335436 -1.6154555172089269 -0.5630670906855859
Ar 8.056659553166677 -1.2646303596793145 -0.3633211070985738
Ar 2.8958469172724035 1.3879548156997537 -1.370448302272692
Ar 1.0206294975034245 2.097569068797143 2.17188960819826
4
 Step: 26. Total Energy: -0.8458633216828702 kcal/mol.
Ar -2.2401196270999018 -1.0868558155727832 -0.5955793156994758
Ar 8.056659553166677 -1.2646303596793145 -0.3633211070985738
Ar 2.8958469172724035 1.3879548156997537 -1.370448302272692
Ar 1.0206294975034245 2.097569068797143 2.17188960819826
4
 Step: 27. Total Energy: -0.8344047792285634 kcal/mol.
Ar -2.2401196270999018 -1.0868558155727832 -0.5955793156994758
Ar 7.629644782989482 -1.9494683366300853 0.5290406936807124
Ar 2.8958469172724035 1.3879548156997537 -1.370448302272692
Ar 1.0206294975034245 2.097569068797143 2.17188960819826
4
 Step: 28. Total Energy: 0.09020714799853544 kcal/mol.
Ar -2.2401196270999018 -1.0868558155727832 -0.5955793156994758
Ar 7.629644782989482 -1.9494683366300853 0.5290406936807124
Ar 2.5470033505024214 2.3362719101724343 -0.7734097692196482
Ar 1.0206294975034245 2.097569068797143 2.17188960819826
4
 Step: 84. Total Energy: -0.05012721436951154 kcal/mol.
Ar 0.07750206849381924 0.9412371531212331 -1.0357923795009765
Ar 4.076128334864192 -2.444096666664321 4.155887217847499
Ar 3.9454867034680765 1.541029599332576 -0.6630880160690116
Ar -3.1418413603155786 1.45760507492828 -0.6066218096545475
4
 Step: 89. Total Energy: -0.9327281928483293 kcal/mol.
Ar -0.620970786867284 -0.7585883884201265 -2.8427251944659213
Ar 4.507591000439762 -1.8580953529093196 3.5003642354154483
Ar 4.717392212735081 0.9814193970202614 -0.09241005873417762
Ar -3.1418413603155786 1.45760507492828 -0.6066218096545475
4
 Step: 91. Total Energy: -0.7661583497725467 kcal/mol.
Ar -0.620970786867284 -0.7585883884201265 -2.8427251944659213
Ar 4.507591000439762 -1.8580953529093196 3.5003642354154483
Ar 4.72703416668063 1.772953224544382 -0.9153052480586374
Ar -2.369245364106754 1.0936147534297531 -0.10113777469402163
4
 Step: 92. Total Energy: -0.6880135462405749 kcal/mol.
Ar -0.620970786867284 -0.7585883884201265 -2.8427251944659213
Ar 4.507591000439762 -1.8580953529093196 3.5003642354154483
Ar 4.72703416668063 1.772953224544382 -0.9153052480586374
Ar -2.0179269734317042 2.0433444340100912 -1.0551303052860972
4
 Step: 93. Total Energy: -0.7383626209644832 kcal/mol.
Ar -0.620970786867284 -0.7585883884201265 -2.8427251944659213
Ar 4.507591000439762 -1.8580953529093196 3.5003642354154483
Ar 4.72703416668063 1.772953224544382 -0.9153052480586374
Ar -1.8928682482901242 1.7717008051000773 -0.5348074532369314
4
 Step: 94. Total Energy: -0.6941720630167005 kcal/mol.
Ar -0.620970786867284 -0.7585883884201265 -2.8427251944659213
Ar 4.507591000439762 -1.8580953529093196 3.5003642354154483
Ar 5.199614197839353 2.322948722706224 -0.33521323230311983
Ar -1.8928682482901242 1.7717008051000773 -0.5348074532369314
4
 Step: 95. Total Energy: -0.49774743379890507 kcal/mol.
Ar -0.4793040249035825 -1.2379016383090224 -3.612418420571053
Ar 4.507591000439762 -1.8580953529093196 3.5003642354154483
Ar 5.199614197839353 2.322948722706224 -0.33521323230311983
Ar -1.8928682482901242 1.7717008051000773 -0.5348074532369314
4
 Step: 96. Total Energy: -0.5054203320562426 kcal/mol.
Ar -0.4793040249035825 -1.2379016383090224 -3.612418420571053
Ar 4.756383502781302 -1.3600021036089092 3.873659916405953
Ar 5.199614197839353 2.322948722706224 -0.33521323230311983
Ar -1.8928682482901242 1.7717008051000773 -0.5348074532369314
4
 Step: 97. Total Energy: -0.5168293336475904 kcal/mol.
Ar -0.4793040249035825 -1.2379016383090224 -3.612418420571053
Ar 3.87090499107297 -0.3990359603179525 4.332635858784171
Ar 5.199614197839353 2.322948722706224 -0.33521323230311983
Ar -1.8928682482901242 1.7717008051000773 -0.5348074532369314
4
 Step: 98. Total Energy: -0.5554227930766615 kcal/mol.
Ar -0.4793040249035825 -1.2379016383090224 -3.612418420571053
Ar 3.06050600560671 -0.4321567260552295 3.8148962103688513
Ar 5.199614197839353 2.322948722706224 -0.33521323230311983
Ar -1.8928682482901242 1.7717008051000773 -0.5348074532369314
4
 Step: 100. Total Energy: -0.31379382552981894 kcal/mol.
Ar -0.28216088720456556 -1.3798303277214616 -4.25231742962028
Ar 3.06050600560671 -0.4321567260552295 3.8148962103688513
Ar 5.778894539047565 2.8483921476574148 -0.4468468858506749
Ar -1.8928682482901242 1.7717008051000773 -0.5348074532369314
4
 Step: 101. Total Energy: -0.34434555161034447 kcal/mol.
Ar -0.28216088720456556 -1.3798303277214616 -4.25231742962028
Ar 3.06050600560671 -0.4321567260552295 3.8148962103688513
Ar 5.379779765741427 2.1292679318709213 -0.8991506564428284
Ar -1.8928682482901242 1.7717008051000773 -0.5348074532369314
4
 Step: 102. Total Energy: -0.44007030053840906 kcal/mol.
Ar -0.28216088720456556 -1.3798303277214616 -4.25231742962028
Ar 3.06050600560671 -0.4321567260552295 3.8148962103688513
Ar 5.379779765741427 2.1292679318709213 -0.8991506564428284
Ar -2.6329918605892955 1.4192071002728135 -1.3977468032945333
4
 Step: 103. Total Energy: -0.21517314930392248 kcal/mol.
Ar -0.28216088720456556 -1.3798303277214616 -4.25231742962028
Ar 3.06050600560671 -0.4321567260552295 3.8148962103688513
Ar 5.379779765741427 2.1292679318709213 -0.8991506564428284
Ar -3.435818251359971 2.0952623673449446 -0.7418156069979329
4
 Step: 104. Total Energy: -0.23820268995522823 kcal/mol.
Ar -0.28216088720456556 -1.3798303277214616 -4.25231742962028
Ar 3.06050600560671 -0.4321567260552295 3.8148962103688513
Ar 4.544021114991835 1.7399591183529695 -1.6606651046189722
Ar -3.435818251359971 2.0952623673449446 -0.7418156069979329
4
 Step: 105. Total Energy: -0.33098710375008084 kcal/mol.
Ar -0.28216088720456556 -1.3798303277214616 -4.25231742962028
Ar 3.06050600560671 -0.4321567260552295 3.8148962103688513
Ar 4.544021114991835 1.7399591183529695 -1.6606651046189722
Ar -3.252596176894878 1.431430948978508 -1.1210075657888878
4
 Step: 106. Total Energy: -0.42468752262027676 kcal/mol.
Ar -0.28216088720456556 -1.3798303277214616 -4.25231742962028
Ar 3.06050600560671 -0.4321567260552295 3.8148962103688513
Ar 3.879521864501487 2.045107418486683 -0.7301302101782605
Ar -3.252596176894878 1.431430948978508 -1.1210075657888878
4
 Step: 107. Total Energy: -0.29031385671250753 kcal/mol.
Ar 0.5040227268660702 -2.1540213137513025 -4.785359893001922
Ar 3.06050600560671 -0.4321567260552295 3.8148962103688513
Ar 3.879521864501487 2.045107418486683 -0.7301302101782605
Ar -3.252596176894878 1.431430948978508 -1.1210075657888878
4
 Step: 108. Total Energy: -0.3673508669992115 kcal/mol.
Ar 0.5040227268660702 -2.1540213137513025 -4.785359893001922
Ar 3.06050600560671 -0.4321567260552295 3.8148962103688513
Ar 4.348750585865121 2.336369490655162 0.17011097064205338
Ar -3.252596176894878 1.431430948978508 -1.1210075657888878
4
 Step: 109. Total Energy: -0.23523123793649564 kcal/mol.
Ar 0.5040227268660702 -2.1540213137513025 -4.785359893001922
Ar 3.06050600560671 -0.4321567260552295 3.8148962103688513
Ar 4.86777797537536 2.852313258613956 0.02206102863463877
Ar -3.252596176894878 1.431430948978508 -1.1210075657888878
4
 Step: 110. Total Energy: -0.1672765195401098 kcal/mol.
Ar 0.5040227268660702 -2.1540213137513025 -4.785359893001922
Ar 3.06050600560671 -0.4321567260552295 3.8148962103688513
Ar 5.382294006673409 3.2328840789091764 -0.16568078043294188
Ar -3.252596176894878 1.431430948978508 -1.1210075657888878
4
 Step: 111. Total Energy: -0.1290242606793456 kcal/mol.
Ar 0.5040227268660702 -2.1540213137513025 -4.785359893001922
Ar 3.06050600560671 -0.4321567260552295 3.8148962103688513
Ar 6.0095420243758335 3.8117502798309553 0.0243814207252806
Ar -3.252596176894878 1.431430948978508 -1.1210075657888878
4
 Step: 112. Total Energy: -0.11252646742928935 kcal/mol.
Ar 0.5040227268660702 -2.1540213137513025 -4.785359893001922
Ar 3.06050600560671 -0.4321567260552295 3.8148962103688513
Ar 6.418810989248286 3.7711780379973536 -0.3940299927770099
Ar -3.252596176894878 1.431430948978508 -1.1210075657888878
4
 Step: 113. Total Energy: -0.12037936947342452 kcal/mol.
Ar -0.06385807998503501 -1.460324018320142 -5.514248982750684
Ar 3.06050600560671 -0.4321567260552295 3.8148962103688513
Ar 6.418810989248286 3.7711780379973536 -0.3940299927770099
Ar -3.252596176894878 1.431430948978508 -1.1210075657888878
4
 Step: 114. Total Energy: -0.09202901464464554 kcal/mol.
Ar 0.9103354165079887 -1.1909052422624404 -5.893164937991043
Ar 3.06050600560671 -0.4321567260552295 3.8148962103688513
Ar 6.418810989248286 3.7711780379973536 -0.3940299927770099
Ar -3.252596176894878 1.431430948978508 -1.1210075657888878
4
 Step: 115. Total Energy: -0.09274207965810567 kcal/mol.
Ar 0.9103354165079887 -1.1909052422624404 -5.893164937991043
Ar 2.0803178338709634 -1.3946845289404366 2.9414758239324668
Ar 6.418810989248286 3.7711780379973536 -0.3940299927770099
Ar -3.252596176894878 1.431430948978508 -1.1210075657888878
4
 Step: 116. Total Energy: -0.10858734902740248 kcal/mol.
Ar 1.0219208118762064 -0.5892554155058785 -5.598301374807045
Ar 2.0803178338709634 -1.3946845289404366 2.9414758239324668
Ar 6.418810989248286 3.7711780379973536 -0.3940299927770099
Ar -3.252596176894878 1.431430948978508 -1.1210075657888878
4
 Step: 117. Total Energy: -0.12117890310323422 kcal/mol.
Ar 1.427008393052766 0.24576779184040842 -5.327148760580981
Ar 2.0803178338709634 -1.3946845289404366 2.9414758239324668
Ar 6.418810989248286 3.7711780379973536 -0.3940299927770099
Ar -3.252596176894878 1.431430948978508 -1.1210075657888878
4
 Step: 118. Total Energy: -0.12504518953260627 kcal/mol.
Ar 2.1441535987968674 -0.12101326081995123 -4.7548196163386995
Ar 2.0803178338709634 -1.3946845289404366 2.9414758239324668
Ar 6.418810989248286 3.7711780379973536 -0.3940299927770099
Ar -3.252596176894878 1.431430948978508 -1.1210075657888878
4
 Step: 119. Total Energy: -0.12768307558642925 kcal/mol.
Ar 2.1441535987968674 -0.12101326081995123 -4.7548196163386995
Ar 2.0803178338709634 -1.3946845289404366 2.9414758239324668
Ar 6.418810989248286 3.7711780379973536 -0.3940299927770099
Ar -2.969172938376948 2.0829998118979685 -1.2874717346300577
4
 Step: 120. Total Energy: -0.11818188254382564 kcal/mol.
Ar 2.1441535987968674 -0.12101326081995123 -4.7548196163386995
Ar 2.0803178338709634 -1.3946845289404366 2.9414758239324668
Ar 7.364797056746304 3.1880920249074705 -0.6472685575268975
Ar -2.969172938376948 2.0829998118979685 -1.2874717346300577
4
 Step: 121. Total Energy: -0.09460545730403735 kcal/mol.
Ar 2.1441535987968674 -0.12101326081995123 -4.7548196163386995
Ar 2.761776856130233 -1.822635271989394 3.9033025386266056
Ar 7.364797056746304 3.1880920249074705 -0.6472685575268975
Ar -2.969172938376948 2.0829998118979685 -1.2874717346300577
4
 Step: 122. Total Energy: -0.07447450985099738 kcal/mol.
Ar 2.1441535987968674 -0.12101326081995123 -4.7548196163386995
Ar 2.761776856130233 -1.822635271989394 3.9033025386266056
Ar 7.364797056746304 3.1880920249074705 -0.6472685575268975
Ar -3.1272527472478977 2.5373854884155795 -0.40964132727720814
4
 Step: 123. Total Energy: -0.07567475187850906 kcal/mol.
Ar 2.1441535987968674 -0.12101326081995123 -4.7548196163386995
Ar 2.761776856130233 -1.822635271989394 3.9033025386266056
Ar 7.654719787379816 2.816375689919433 -1.070721096316079
Ar -3.1272527472478977 2.5373854884155795 -0.40964132727720814
4
 Step: 124. Total Energy: -0.13004623581098518 kcal/mol.
Ar 2.7558268256800753 0.7497559605350972 -3.951797220152213
Ar 2.761776856130233 -1.822635271989394 3.9033025386266056
Ar 7.654719787379816 2.816375689919433 -1.070721096316079
Ar -3.1272527472478977 2.5373854884155795 -0.40964132727720814
4
 Step: 125. Total Energy: -0.1604816739078501 kcal/mol.
Ar 2.7558268256800753 0.7497559605350972 -3.951797220152213
Ar 2.761776856130233 -1.822635271989394 3.9033025386266056
Ar 7.117650411374509 3.158124365138506 -1.2067740215503953
Ar -3.1272527472478977 2.5373854884155795 -0.40964132727720814
4
 Step: 126. Total Energy: -0.18507119323777568 kcal/mol.
Ar 2.7558268256800753 0.7497559605350972 -3.951797220152213
Ar 2.761776856130233 -1.822635271989394 3.9033025386266056
Ar 7.117650411374509 3.158124365138506 -1.2067740215503953
Ar -2.568458196714605 2.4288518062019886 -0.7655334224454415
4
 Step: 127. Total Energy: -0.25601409419864474 kcal/mol.
Ar 2.7558268256800753 0.7497559605350972 -3.951797220152213
Ar 2.761776856130233 -1.822635271989394 3.9033025386266056
Ar 6.503355412215214 3.741497156976404 -2.056388385157522
Ar -2.568458196714605 2.4288518062019886 -0.7655334224454415
4
 Step: 128. Total Energy: -0.24227082025224164 kcal/mol.
Ar 2.7558268256800753 0.7497559605350972 -3.951797220152213
Ar 3.052393188208677 -2.4296884745781093 4.754476433483374
Ar 6.503355412215214 3.741497156976404 -2.056388385157522
Ar -2.568458196714605 2.4288518062019886 -0.7655334224454415
4
 Step: 129. Total Energy: -0.29928087789507607 kcal/mol.
Ar 3.706775897414807 0.8774650339054848 -4.645093145295993
Ar 3.052393188208677 -2.4296884745781093 4.754476433483374
Ar 6.503355412215214 3.741497156976404 -2.056388385157522
Ar -2.568458196714605 2.4288518062019886 -0.7655334224454415
4
 Step: 130. Total Energy: -0.12571558685676615 kcal/mol.
Ar 3.488715194569351 0.33684592106261535 -5.554586547956303
Ar 3.052393188208677 -2.4296884745781093 4.754476433483374
Ar 6.503355412215214 3.741497156976404 -2.056388385157522
Ar -2.568458196714605 2.4288518062019886 -0.7655334224454415
4
 Step: 131. Total Energy: -0.12291667001419117 kcal/mol.
Ar 3.488715194569351 0.33684592106261535 -5.554586547956303
Ar 2.760642618173416 -2.6250093038035427 5.317692300437481
Ar 6.503355412215214 3.741497156976404 -2.056388385157522
Ar -2.568458196714605 2.4288518062019886 -0.7655334224454415
4
 Step: 132. Total Energy: -0.11955583966704561 kcal/mol.
Ar 3.488715194569351 0.33684592106261535 -5.554586547956303
Ar 3.2951797228039137 -3.4988358355795905 5.67668417453219
Ar 6.503355412215214 3.741497156976404 -2.056388385157522
Ar -2.568458196714605 2.4288518062019886 -0.7655334224454415
4
 Step: 133. Total Energy: -0.12430093037460525 kcal/mol.
Ar 3.488715194569351 0.33684592106261535 -5.554586547956303
Ar 3.2951797228039137 -3.4988358355795905 5.67668417453219
Ar 6.503355412215214 3.741497156976404 -2.056388385157522
Ar -2.1315564402374703 3.2100406153338144 -1.0593563537072603
4
 Step: 134. Total Energy: -0.12496685086641846 kcal/mol.
Ar 4.370504137893002 -0.394787668016364 -5.279688066104619
Ar 3.2951797228039137 -3.4988358355795905 5.67668417453219
Ar 6.503355412215214 3.741497156976404 -2.056388385157522
Ar -2.1315564402374703 3.2100406153338144 -1.0593563537072603
4
 Step: 135. Total Energy: -0.12583521350537627 kcal/mol.
Ar 4.370504137893002 -0.394787668016364 -5.279688066104619
Ar 3.2951797228039137 -3.4988358355795905 5.67668417453219
Ar 6.503355412215214 3.741497156976404 -2.056388385157522
Ar -2.337594178274669 2.9424421310039324 -1.8422767060761354
4
 Step: 136. Total Energy: -0.12693027920806063 kcal/mol.
Ar 4.370504137893002 -0.394787668016364 -5.279688066104619
Ar 3.2951797228039137 -3.4988358355795905 5.67668417453219
Ar 6.503355412215214 3.741497156976404 -2.056388385157522
Ar -2.3405738285117414 2.6225548838491317 -1.8647947419572068
4
 Step: 137. Total Energy: -0.12338271727724834 kcal/mol.
Ar 4.370504137893002 -0.394787668016364 -5.279688066104619
Ar 4.238866926534035 -3.052926426139927 6.66415174074437
Ar 6.503355412215214 3.741497156976404 -2.056388385157522
Ar -2.3405738285117414 2.6225548838491317 -1.8647947419572068
4
 Step: 138. Total Energy: -0.12312254802752834 kcal/mol.
Ar 4.370504137893002 -0.394787668016364 -5.279688066104619
Ar 4.230213875100663 -3.004603001932969 7.101626292998886
Ar 6.503355412215214 3.741497156976404 -2.056388385157522
Ar -2.3405738285117414 2.6225548838491317 -1.8647947419572068
4
 Step: 139. Total Energy: -0.127049485612812 kcal/mol.
Ar 4.370504137893002 -0.394787668016364 -5.279688066104619
Ar 3.433310014154284 -2.612695137928689 6.158006636862662
Ar 6.503355412215214 3.741497156976404 -2.056388385157522
Ar -2.3405738285117414 2.6225548838491317 -1.8647947419572068
4
 Step: 140. Total Energy: -0.14308506094472156 kcal/mol.
Ar 4.370504137893002 -0.394787668016364 -5.279688066104619
Ar 3.433310014154284 -2.612695137928689 6.158006636862662
Ar 6.503355412215214 3.741497156976404 -2.056388385157522
Ar -1.8099567683177598 2.0604234083998767 -2.6536784703387983
4
 Step: 141. Total Energy: -0.13116811942595236 kcal/mol.
Ar 3.4696826729182524 -0.4377090838582789 -5.296385253696073
Ar 3.433310014154284 -2.612695137928689 6.158006636862662
Ar 6.503355412215214 3.741497156976404 -2.056388385157522
Ar -1.8099567683177598 2.0604234083998767 -2.6536784703387983
4
 Step: 142. Total Energy: -0.13156314965707014 kcal/mol.
Ar 3.4696826729182524 -0.4377090838582789 -5.296385253696073
Ar 2.911826757627798 -2.4017032644968666 6.119619728046684
Ar 6.503355412215214 3.741497156976404 -2.056388385157522
Ar -1.8099567683177598 2.0604234083998767 -2.6536784703387983
4
 Step: 143. Total Energy: -0.14409613557292236 kcal/mol.
Ar 4.062683837465089 -0.1222311438922572 -5.496550306897468
Ar 2.911826757627798 -2.4017032644968666 6.119619728046684
Ar 6.503355412215214 3.741497156976404 -2.056388385157522
Ar -1.8099567683177598 2.0604234083998767 -2.6536784703387983
4
 Step: 144. Total Energy: -0.09894003880758111 kcal/mol.
Ar 3.971049140636297 -0.40816021536978075 -5.969468205035859
Ar 2.911826757627798 -2.4017032644968666 6.119619728046684
Ar 6.503355412215214 3.741497156976404 -2.056388385157522
Ar -1.8099567683177598 2.0604234083998767 -2.6536784703387983
4
 Step: 145. Total Energy: -0.1079873012587774 kcal/mol.
Ar 3.971049140636297 -0.40816021536978075 -5.969468205035859
Ar 2.911826757627798 -2.4017032644968666 6.119619728046684
Ar 6.503355412215214 3.741497156976404 -2.056388385157522
Ar -1.4000064359553945 1.917256588373073 -2.3297218774191473
4
 Step: 146. Total Energy: -0.09268667357515031 kcal/mol.
Ar 4.610828128498608 -0.7639825959326105 -5.996442145662879
Ar 2.911826757627798 -2.4017032644968666 6.119619728046684
Ar 6.503355412215214 3.741497156976404 -2.056388385157522
Ar -1.4000064359553945 1.917256588373073 -2.3297218774191473
4
 Step: 148. Total Energy: -0.08016994645990462 kcal/mol.
Ar 4.610828128498608 -0.7639825959326105 -5.996442145662879
Ar 2.911826757627798 -2.4017032644968666 6.119619728046684
Ar 6.702248933020109 4.208742540633526 -2.7362177745429275
Ar -1.6906648933333994 1.581515608898114 -1.4987261791707067
4
 Step: 149. Total Energy: -0.08279818754813711 kcal/mol.
Ar 4.610828128498608 -0.7639825959326105 -5.996442145662879
Ar 2.0606877707975793 -3.28891029741591 5.384056668319182
Ar 6.702248933020109 4.208742540633526 -2.7362177745429275
Ar -1.6906648933333994 1.581515608898114 -1.4987261791707067
4
 Step: 150. Total Energy: -0.06684338368262559 kcal/mol.
Ar 4.1784384618224815 -1.1964366904242125 -5.916811806608745
Ar 2.0606877707975793 -3.28891029741591 5.384056668319182
Ar 6.702248933020109 4.208742540633526 -2.7362177745429275
Ar -1.6906648933333994 1.581515608898114 -1.4987261791707067
4
 Step: 151. Total Energy: -0.058126089089949776 kcal/mol.
Ar 4.1784384618224815 -1.1964366904242125 -5.916811806608745
Ar 2.0606877707975793 -3.28891029741591 5.384056668319182
Ar 6.702248933020109 4.208742540633526 -2.7362177745429275
Ar -2.131656769532687 2.024389557060895 -0.6689180633453371
4
 Step: 152. Total Energy: -0.06060852480515245 kcal/mol.
Ar 4.1784384618224815 -1.1964366904242125 -5.916811806608745
Ar 2.0606877707975793 -3.28891029741591 5.384056668319182
Ar 6.702248933020109 4.208742540633526 -2.7362177745429275
Ar -1.45205606225485 2.742989343647624 0.19056320022258832
4
 Step: 153. Total Energy: -0.05427222963370209 kcal/mol.
Ar 4.1784384618224815 -1.1964366904242125 -5.916811806608745
Ar 3.041325994382778 -3.552045556602057 5.966786424211268
Ar 6.702248933020109 4.208742540633526 -2.7362177745429275
Ar -1.45205606225485 2.742989343647624 0.19056320022258832
4
 Step: 154. Total Energy: -0.04161133666456298 kcal/mol.
Ar 4.1784384618224815 -1.1964366904242125 -5.916811806608745
Ar 3.041325994382778 -3.552045556602057 5.966786424211268
Ar 6.5555514263947385 4.759954595529274 -2.4259220454589947
Ar -1.45205606225485 2.742989343647624 0.19056320022258832
4
 Step: 155. Total Energy: -0.04045078851060088 kcal/mol.
Ar 4.1784384618224815 -1.1964366904242125 -5.916811806608745
Ar 3.041325994382778 -3.552045556602057 5.966786424211268
Ar 6.5555514263947385 4.759954595529274 -2.4259220454589947
Ar -1.6226314160237576 2.4138489008373 0.3798193750752774
4
 Step: 156. Total Energy: -0.02505609584388161 kcal/mol.
Ar 5.065100902729809 -2.0830739473318767 -6.832497551560249
Ar 3.041325994382778 -3.552045556602057 5.966786424211268
Ar 6.5555514263947385 4.759954595529274 -2.4259220454589947
Ar -1.6226314160237576 2.4138489008373 0.3798193750752774
4
 Step: 157. Total Energy: -0.021471950925102908 kcal/mol.
Ar 4.626636333487775 -2.234777370193881 -7.400841802742841
Ar 3.041325994382778 -3.552045556602057 5.966786424211268
Ar 6.5555514263947385 4.759954595529274 -2.4259220454589947
Ar -1.6226314160237576 2.4138489008373 0.3798193750752774
4
 Step: 158. Total Energy: -0.02051348097516621 kcal/mol.
Ar 4.626636333487775 -2.234777370193881 -7.400841802742841
Ar 3.041325994382778 -3.552045556602057 5.966786424211268
Ar 6.7901080590373075 4.7428507300767695 -1.5535398459704044
Ar -1.6226314160237576 2.4138489008373 0.3798193750752774
4
 Step: 159. Total Energy: -0.01942509969574958 kcal/mol.
Ar 4.626636333487775 -2.234777370193881 -7.400841802742841
Ar 4.033534293713467 -3.1841158472202666 6.271003319431613
Ar 6.7901080590373075 4.7428507300767695 -1.5535398459704044
Ar -1.6226314160237576 2.4138489008373 0.3798193750752774
4
 Step: 160. Total Energy: -0.01829817001041115 kcal/mol.
Ar 4.626636333487775 -2.234777370193881 -7.400841802742841
Ar 4.254550255286675 -3.2658529039397495 6.740704719325261
Ar 6.7901080590373075 4.7428507300767695 -1.5535398459704044
Ar -1.6226314160237576 2.4138489008373 0.3798193750752774
4
 Step: 161. Total Energy: -0.016493867933712346 kcal/mol.
Ar 4.626636333487775 -2.234777370193881 -7.400841802742841
Ar 3.5203476759344126 -3.44834976336161 7.6969072327639765
Ar 6.7901080590373075 4.7428507300767695 -1.5535398459704044
Ar -1.6226314160237576 2.4138489008373 0.3798193750752774
4
 Step: 162. Total Energy: -0.014064730534431616 kcal/mol.
Ar 4.177381774044033 -2.4038724987640725 -8.25344752690037
Ar 3.5203476759344126 -3.44834976336161 7.6969072327639765
Ar 6.7901080590373075 4.7428507300767695 -1.5535398459704044
Ar -1.6226314160237576 2.4138489008373 0.3798193750752774
4
 Step: 163. Total Energy: -0.013499167893508506 kcal/mol.
Ar 4.177381774044033 -2.4038724987640725 -8.25344752690037
Ar 4.374111892350237 -2.793456698939829 8.267789424610083
Ar 6.7901080590373075 4.7428507300767695 -1.5535398459704044
Ar -1.6226314160237576 2.4138489008373 0.3798193750752774
4
 Step: 164. Total Energy: -0.01406624595420656 kcal/mol.
Ar 3.528966425401425 -2.682169075355574 -7.68301367703629
Ar 4.374111892350237 -2.793456698939829 8.267789424610083
Ar 6.7901080590373075 4.7428507300767695 -1.5535398459704044
Ar -1.6226314160237576 2.4138489008373 0.3798193750752774
4
 Step: 165. Total Energy: -0.02014501360734925 kcal/mol.
Ar 3.528966425401425 -2.682169075355574 -7.68301367703629
Ar 4.374111892350237 -2.793456698939829 8.267789424610083
Ar 6.058517120287974 4.371508611644038 -1.620559169474387
Ar -1.6226314160237576 2.4138489008373 0.3798193750752774
4
 Step: 166. Total Energy: -0.01977272152853543 kcal/mol.
Ar 3.528966425401425 -2.682169075355574 -7.68301367703629
Ar 3.871736125130728 -3.7142918886996417 8.605124671215318
Ar 6.058517120287974 4.371508611644038 -1.620559169474387
Ar -1.6226314160237576 2.4138489008373 0.3798193750752774
4
 Step: 167. Total Energy: -0.019569733959361672 kcal/mol.
Ar 3.528966425401425 -2.682169075355574 -7.68301367703629
Ar 4.543502476313756 -2.7906004759897636 9.178855555912302
Ar 6.058517120287974 4.371508611644038 -1.620559169474387
Ar -1.6226314160237576 2.4138489008373 0.3798193750752774
4
 Step: 168. Total Energy: -0.014608843831941463 kcal/mol.
Ar 3.528966425401425 -2.682169075355574 -7.68301367703629
Ar 4.543502476313756 -2.7906004759897636 9.178855555912302
Ar 6.602895020642842 4.681204185355933 -0.9228886483856731
Ar -1.6226314160237576 2.4138489008373 0.3798193750752774
4
 Step: 169. Total Energy: -0.02010518088851843 kcal/mol.
Ar 3.528966425401425 -2.682169075355574 -7.68301367703629
Ar 4.543502476313756 -2.7906004759897636 9.178855555912302
Ar 5.7675017739023975 4.867023253496652 -1.5888801849574175
Ar -1.6226314160237576 2.4138489008373 0.3798193750752774
4
 Step: 170. Total Energy: -0.018100762433053457 kcal/mol.
Ar 3.528966425401425 -2.682169075355574 -7.68301367703629
Ar 4.543502476313756 -2.7906004759897636 9.178855555912302
Ar 5.7675017739023975 4.867023253496652 -1.5888801849574175
Ar -1.6036616401503552 2.4442538385153645 1.1694058202580482
4
 Step: 171. Total Energy: -0.018086069702951665 kcal/mol.
Ar 3.528966425401425 -2.682169075355574 -7.68301367703629
Ar 4.705637209713442 -2.402899130207676 9.319942365212373
Ar 5.7675017739023975 4.867023253496652 -1.5888801849574175
Ar -1.6036616401503552 2.4442538385153645 1.1694058202580482
4
 Step: 172. Total Energy: -0.01925804598233838 kcal/mol.
Ar 3.528966425401425 -2.682169075355574 -7.68301367703629
Ar 4.705637209713442 -2.402899130207676 9.319942365212373
Ar 5.622491265411513 4.923757502792991 -1.4559111935940745
Ar -1.6036616401503552 2.4442538385153645 1.1694058202580482
4
 Step: 173. Total Energy: -0.016834355279555957 kcal/mol.
Ar 4.292769372033199 -3.5858269965176994 -7.535181355078647
Ar 4.705637209713442 -2.402899130207676 9.319942365212373
Ar 5.622491265411513 4.923757502792991 -1.4559111935940745
Ar -1.6036616401503552 2.4442538385153645 1.1694058202580482
4
 Step: 174. Total Energy: -0.01694929741837391 kcal/mol.
Ar 4.292769372033199 -3.5858269965176994 -7.535181355078647
Ar 4.388247081040778 -2.6421791595702935 9.232972796362258
Ar 5.622491265411513 4.923757502792991 -1.4559111935940745
Ar -1.6036616401503552 2.4442538385153645 1.1694058202580482
4
 Step: 175. Total Energy: -0.018634202874956783 kcal/mol.
Ar 4.292769372033199 -3.5858269965176994 -7.535181355078647
Ar 4.388247081040778 -2.6421791595702935 9.232972796362258
Ar 5.417065653749811 5.002269393234625 -1.397842344587716
Ar -1.6036616401503552 2.4442538385153645 1.1694058202580482
4
 Step: 176. Total Energy: -0.018165205647854205 kcal/mol.
Ar 4.032265657259408 -4.324862576251329 -7.053519894937077
Ar 4.388247081040778 -2.6421791595702935 9.232972796362258
Ar 5.417065653749811 5.002269393234625 -1.397842344587716
Ar -1.6036616401503552 2.4442538385153645 1.1694058202580482
4
 Step: 177. Total Energy: -0.017655670944636694 kcal/mol.
Ar 4.032265657259408 -4.324862576251329 -7.053519894937077
Ar 4.388247081040778 -2.6421791595702935 9.232972796362258
Ar 5.417065653749811 5.002269393234625 -1.397842344587716
Ar -1.4311790338702923 2.509115027021165 1.93814146761177
4
 Step: 178. Total Energy: -0.013897990086669377 kcal/mol.
Ar 4.032265657259408 -4.324862576251329 -7.053519894937077
Ar 4.388247081040778 -2.6421791595702935 9.232972796362258
Ar 5.9215191118866235 5.166658901413411 -1.2179489021247456
Ar -1.4311790338702923 2.509115027021165 1.93814146761177
4
 Step: 179. Total Energy: -0.013416547207768975 kcal/mol.
Ar 4.980649442975895 -5.306688619541111 -6.891525180605104
Ar 4.388247081040778 -2.6421791595702935 9.232972796362258
Ar 5.9215191118866235 5.166658901413411 -1.2179489021247456
Ar -1.4311790338702923 2.509115027021165 1.93814146761177
4
 Step: 180. Total Energy: -0.011927014250273114 kcal/mol.
Ar 4.980649442975895 -5.306688619541111 -6.891525180605104
Ar 4.388247081040778 -2.6421791595702935 9.232972796362258
Ar 5.9215191118866235 5.166658901413411 -1.2179489021247456
Ar -1.8001044267243014 2.754185271213659 1.5805717216483446
4