4
 Step: 0. Total Energy: 16.628253760477214 kcal/mol.
Ar 0.0 0.0 0.0
Ar 4.0 0.0 0.0
Ar 2.0 3.46 0.0
Ar 2.0 1.53 2.03
4
 Step: 6. Total Energy: 9.74997808129114 kcal/mol.
Ar 0.17004810674013826 -0.08734286212712483 -0.7205216443389262
Ar 4.0 0.0 0.0
Ar 1.9625958304742588 2.978167636287096 -0.7389355452051343
Ar 3.487798736896817 3.0781669998534085 1.677468217276364
4
 Step: 7. Total Energy: -2.1092169854735063 kcal/mol.
Ar 0.17004810674013826 -0.08734286212712483 -0.7205216443389262
Ar 4.0 0.0 0.0
Ar 1.8770458582856386 3.8730247243640603 -1.3100056563253224
Ar 3.487798736896817 3.0781669998534085 1.677468217276364
4
 Step: 8. Total Energy: -2.439086253051096 kcal/mol.
Ar 0.17004810674013826 -0.08734286212712483 -0.7205216443389262
Ar 4.0 0.0 0.0
Ar 2.045554003457063 3.6662714192618524 -1.8114693655748892
Ar 3.487798736896817 3.0781669998534085 1.677468217276364
4
 Step: 9. Total Energy: -2.561853377216843 kcal/mol.
Ar 0.17004810674013826 -0.08734286212712483 -0.7205216443389262
Ar 4.0 0.0 0.0
Ar 2.045554003457063 3.6662714192618524 -1.8114693655748892
Ar 2.5151526021075594 2.414855107068665 2.209235232821144
4
 Step: 13. Total Energy: -2.0523799686338227 kcal/mol.
Ar 0.042902184169936186 0.46441057156449816 -0.8881723535844153
Ar 4.0 0.0 0.0
Ar 2.386132725008591 3.5524296702533635 -3.087285625258228
Ar 2.5151526021075594 2.414855107068665 2.209235232821144
4
 Step: 14. Total Energy: -2.1174679535196117 kcal/mol.
Ar -0.16300865102598872 1.3525163156761073 -0.16485101872224472
Ar 4.0 0.0 0.0
Ar 2.386132725008591 3.5524296702533635 -3.087285625258228
Ar 2.5151526021075594 2.414855107068665 2.209235232821144
4
 Step: 22. Total Energy: -1.56622692486556 kcal/mol.
Ar -0.08960570774249588 2.0862822461538197 -0.4263568070297412
Ar 5.169631195416709 0.8056934725949778 0.9615031852656883
Ar 3.345715016100247 3.5117310202958096 -3.2665999725074766
Ar 2.24077344956455 2.974093990222397 2.0436641036886813
4
 Step: 25. Total Energy: -1.0831932042586416 kcal/mol.
Ar -0.956976105038766 1.5762961667104056 -0.25475869044570065
Ar 5.929566899891702 0.8014468932880567 0.8830133286286492
Ar 3.345715016100247 3.5117310202958096 -3.2665999725074766
Ar 1.4702013439761408 3.4304213696375694 1.9117410275137134
4
 Step: 72. Total Energy: -1.2074103538042582 kcal/mol.
Ar 4.166656120697487 2.81168902283944 2.0115252739604763
Ar 7.924877213424193 2.8083625885216597 2.0355832545501875
Ar 2.9235788052646177 2.0555882461680977 -3.6549610530591945
Ar 0.4747092043078165 1.1033415172241507 2.7437029017137338
4
 Step: 73. Total Energy: -1.2390359441669734 kcal/mol.
Ar 4.166656120697487 2.81168902283944 2.0115252739604763
Ar 7.924877213424193 2.8083625885216597 2.0355832545501875
Ar 2.2756563777298444 2.542197579904055 -3.3066571422914808
Ar 0.4747092043078165 1.1033415172241507 2.7437029017137338
4
 Step: 74. Total Energy: -1.209452300255625 kcal/mol.
Ar 4.309619794250212 2.3721508826093647 2.817868483543738
Ar 7.924877213424193 2.8083625885216597 2.0355832545501875
Ar 2.2756563777298444 2.542197579904055 -3.3066571422914808
Ar 0.4747092043078165 1.1033415172241507 2.7437029017137338
4
 Step: 75. Total Energy: -1.3244300472560435 kcal/mol.
Ar 4.309619794250212 2.3721508826093647 2.817868483543738
Ar 7.924877213424193 2.8083625885216597 2.0355832545501875
Ar 2.2756563777298444 2.542197579904055 -3.3066571422914808
Ar 0.5760272813654339 1.68838299037875 1.8267946258255368
4
 Step: 82. Total Energy: -1.1015712409763303 kcal/mol.
Ar 4.435242408308651 2.7633961745787863 4.098351610431932
Ar 6.984648212347392 3.133288495619163 1.5849736585423086
Ar 0.8012414202558924 2.455569308632518 -4.765304715150734
Ar 1.32427727988324 0.9246472334512867 2.3391404599797214
4
 Step: 101. Total Energy: -0.6308556861505491 kcal/mol.
Ar 4.503192620741003 3.1232836761702076 2.739790743591807
Ar 8.925414768389317 3.4298883218182175 -0.1194363331128383
Ar 1.048224126778597 3.583294539058046 -5.850849510206567
Ar 1.7031123721684567 -0.018003297127526796 3.018032569123976
4
 Step: 102. Total Energy: -0.7357025196700093 kcal/mol.
Ar 4.503192620741003 3.1232836761702076 2.739790743591807
Ar 8.925414768389317 3.4298883218182175 -0.1194363331128383
Ar 1.048224126778597 3.583294539058046 -5.850849510206567
Ar 2.0935772824814243 0.033617201714178035 2.98679166221428
4
 Step: 103. Total Energy: -0.7953867584093032 kcal/mol.
Ar 4.503192620741003 3.1232836761702076 2.739790743591807
Ar 8.328749325813833 3.450845116578069 -0.44379410601531855
Ar 1.048224126778597 3.583294539058046 -5.850849510206567
Ar 2.0935772824814243 0.033617201714178035 2.98679166221428
4
 Step: 104. Total Energy: -0.9426415334712307 kcal/mol.
Ar 4.503192620741003 3.1232836761702076 2.739790743591807
Ar 8.395808593152797 3.504436771258232 0.5474838493435876
Ar 1.048224126778597 3.583294539058046 -5.850849510206567
Ar 2.0935772824814243 0.033617201714178035 2.98679166221428
4
 Step: 118. Total Energy: -0.9423067107539089 kcal/mol.
Ar 3.996169096326855 2.7376798374635216 1.0066967673583318
Ar 8.027205189227942 3.0027357997482356 -0.26205271299170363
Ar 1.073711396284765 3.228756690221765 -6.346962107284633
Ar 2.912946611210775 0.7848497458411199 3.797157916370505
4
 Step: 125. Total Energy: -0.8462684640346404 kcal/mol.
Ar 5.369935217970507 2.1096564920910286 0.9783938573861972
Ar 8.166965338841587 3.6460202101426264 -1.1749203255065708
Ar 2.1505888675941627 3.1801485094204924 -5.685877122538968
Ar 2.6253831043887796 1.424734296073396 2.971086842577731
4
 Step: 126. Total Energy: -0.10272238542924762 kcal/mol.
Ar 4.6587310568182225 2.5484834863062846 0.6174000792177952
Ar 8.166965338841587 3.6460202101426264 -1.1749203255065708
Ar 2.1505888675941627 3.1801485094204924 -5.685877122538968
Ar 2.6253831043887796 1.424734296073396 2.971086842577731
4
 Step: 128. Total Energy: -0.847626194096113 kcal/mol.
Ar 5.128226362370938 3.1032161687197206 0.6955538618946822
Ar 9.036385312222977 4.321523357390255 -2.0566183630962276
Ar 2.1505888675941627 3.1801485094204924 -5.685877122538968
Ar 2.6253831043887796 1.424734296073396 2.971086842577731
4
 Step: 141. Total Energy: -0.8030682228063271 kcal/mol.
Ar 6.859892891459795 0.3735907638663567 2.901233361729977
Ar 8.282561443236803 3.0309454522541897 0.09860964792374527
Ar 2.718024399332519 3.7611806064171085 -5.624018566650771
Ar 3.6426485266081787 0.767836671111024 1.7475090971608154
4
 Step: 142. Total Energy: -1.097640498233338 kcal/mol.
Ar 6.859892891459795 0.3735907638663567 2.901233361729977
Ar 8.282561443236803 3.0309454522541897 0.09860964792374527
Ar 2.718024399332519 3.7611806064171085 -5.624018566650771
Ar 2.942433475527337 0.036588610418924805 1.9958428056170034
4
 Step: 143. Total Energy: -1.2478789467611 kcal/mol.
Ar 6.859892891459795 0.3735907638663567 2.901233361729977
Ar 8.282561443236803 3.0309454522541897 0.09860964792374527
Ar 2.718024399332519 3.7611806064171085 -5.624018566650771
Ar 3.613836404705427 0.6445132109935794 1.0042816884845567
4
 Step: 144. Total Energy: -1.2919990441784248 kcal/mol.
Ar 6.859892891459795 0.3735907638663567 2.901233361729977
Ar 8.282561443236803 3.0309454522541897 0.09860964792374527
Ar 3.603053359314245 3.2398497480658963 -4.999668547364493
Ar 3.613836404705427 0.6445132109935794 1.0042816884845567
4
 Step: 145. Total Energy: -0.5855567558019654 kcal/mol.
Ar 6.859892891459795 0.3735907638663567 2.901233361729977
Ar 8.282561443236803 3.0309454522541897 0.09860964792374527
Ar 3.603053359314245 3.2398497480658963 -4.999668547364493
Ar 3.654314063937025 -0.2651725580119779 1.998783293099896
4
 Step: 146. Total Energy: -0.396914650226291 kcal/mol.
Ar 6.859892891459795 0.3735907638663567 2.901233361729977
Ar 8.81685385031697 2.998476201142397 -0.2161792828917528
Ar 3.603053359314245 3.2398497480658963 -4.999668547364493
Ar 3.654314063937025 -0.2651725580119779 1.998783293099896
4
 Step: 147. Total Energy: -0.5194701235017474 kcal/mol.
Ar 6.859892891459795 0.3735907638663567 2.901233361729977
Ar 9.385725685138533 2.3836677073001757 0.2689898077794848
Ar 3.603053359314245 3.2398497480658963 -4.999668547364493
Ar 3.654314063937025 -0.2651725580119779 1.998783293099896
4
 Step: 148. Total Energy: -0.536309140574702 kcal/mol.
Ar 6.859892891459795 0.3735907638663567 2.901233361729977
Ar 9.385725685138533 2.3836677073001757 0.2689898077794848
Ar 3.991781514710862 4.101085740556522 -4.164711445735771
Ar 3.654314063937025 -0.2651725580119779 1.998783293099896
4
 Step: 149. Total Energy: -0.5860860798316584 kcal/mol.
Ar 6.859892891459795 0.3735907638663567 2.901233361729977
Ar 9.127794484983701 1.3888158223443776 -0.35636637129601634
Ar 3.991781514710862 4.101085740556522 -4.164711445735771
Ar 3.654314063937025 -0.2651725580119779 1.998783293099896
4
 Step: 156. Total Energy: -0.7675190098963478 kcal/mol.
Ar 5.868042113145188 1.2111391609166344 3.7427348815520363
Ar 9.131010951005827 1.502929607595138 -1.1507668958102666
Ar 3.729590529843648 5.018493986210375 -4.405140569878638
Ar 3.669714566388838 -0.23009207737825998 1.0041118552351203
4
 Step: 157. Total Energy: -0.7534861212287088 kcal/mol.
Ar 5.868042113145188 1.2111391609166344 3.7427348815520363
Ar 8.88046010042753 2.4706070309255734 -1.5894524918315305
Ar 3.729590529843648 5.018493986210375 -4.405140569878638
Ar 3.669714566388838 -0.23009207737825998 1.0041118552351203
4
 Step: 158. Total Energy: -0.7065866531416687 kcal/mol.
Ar 5.868042113145188 1.2111391609166344 3.7427348815520363
Ar 9.589823456568064 1.6973692580512487 -1.4538271590381722
Ar 3.729590529843648 5.018493986210375 -4.405140569878638
Ar 3.669714566388838 -0.23009207737825998 1.0041118552351203
4
 Step: 159. Total Energy: -0.5679774154965088 kcal/mol.
Ar 5.868042113145188 1.2111391609166344 3.7427348815520363
Ar 9.589823456568064 1.6973692580512487 -1.4538271590381722
Ar 3.729590529843648 5.018493986210375 -4.405140569878638
Ar 3.5120157431682673 -0.9727545051619715 0.9879318430997912
4
 Step: 161. Total Energy: -0.5413556610842137 kcal/mol.
Ar 5.868042113145188 1.2111391609166344 3.7427348815520363
Ar 9.971152519857373 1.9654193011678336 -1.6576818498287043
Ar 3.729590529843648 5.018493986210375 -4.405140569878638
Ar 3.5120157431682673 -0.9727545051619715 0.9879318430997912
4
 Step: 162. Total Energy: -0.37737252844219077 kcal/mol.
Ar 5.868042113145188 1.2111391609166344 3.7427348815520363
Ar 9.971152519857373 1.9654193011678336 -1.6576818498287043
Ar 3.729590529843648 5.018493986210375 -4.405140569878638
Ar 4.371477669239205 -1.3385792367454217 0.010866772617912357
4
 Step: 163. Total Energy: -0.666578159195842 kcal/mol.
Ar 5.868042113145188 1.2111391609166344 3.7427348815520363
Ar 9.971152519857373 1.9654193011678336 -1.6576818498287043
Ar 3.729590529843648 5.018493986210375 -4.405140569878638
Ar 4.976042415452824 -1.2767828225649984 0.7805275256397946
4
 Step: 164. Total Energy: -0.6940687143927453 kcal/mol.
Ar 5.868042113145188 1.2111391609166344 3.7427348815520363
Ar 9.971152519857373 1.9654193011678336 -1.6576818498287043
Ar 4.186514232601406 4.4531367523675005 -4.071999477445338
Ar 4.976042415452824 -1.2767828225649984 0.7805275256397946
4
 Step: 165. Total Energy: -0.6766661988737215 kcal/mol.
Ar 5.096769070722623 1.6216632422571138 3.549515805353809
Ar 9.971152519857373 1.9654193011678336 -1.6576818498287043
Ar 4.186514232601406 4.4531367523675005 -4.071999477445338
Ar 4.976042415452824 -1.2767828225649984 0.7805275256397946
4
 Step: 170. Total Energy: -0.5694315040310792 kcal/mol.
Ar 4.383094228649733 0.9407748204590327 2.9288073599712723
Ar 9.101200182555445 1.7206856411247022 -1.4286834378777402
Ar 4.653397534904965 4.706103543651829 -4.65290092322049
Ar 5.548828175121951 -1.6655756869551737 0.8971051838924557
4
 Step: 190. Total Energy: -0.4986622838379505 kcal/mol.
Ar 2.8626140774244933 0.9023781933658677 1.5746015483425095
Ar 9.71470050430384 2.8916261449293224 -1.3385804461289037
Ar 8.86954756489139 7.257527466392161 -6.558042349675443
Ar 6.032126969306069 -1.9558355171863602 2.1776755748611603
4
 Step: 201. Total Energy: -0.66146845444585 kcal/mol.
Ar 3.8450646588487385 0.0956369613705077 2.096685910451759
Ar 8.74702091282509 1.4048875202004611 -1.8562616626004964
Ar 8.849463329251826 7.020819025249978 -6.869369864098572
Ar 5.974074520967393 -2.6671418142629992 3.650778905414656
4
 Step: 202. Total Energy: -0.6579539618471597 kcal/mol.
Ar 3.8450646588487385 0.0956369613705077 2.096685910451759
Ar 8.74702091282509 1.4048875202004611 -1.8562616626004964
Ar 9.483749023233054 6.913687488775279 -7.311905677949201
Ar 5.974074520967393 -2.6671418142629992 3.650778905414656
4
 Step: 203. Total Energy: -0.6594260536419967 kcal/mol.
Ar 3.8450646588487385 0.0956369613705077 2.096685910451759
Ar 8.74702091282509 1.4048875202004611 -1.8562616626004964
Ar 9.163757159797878 7.184454042048369 -6.884329809912152
Ar 5.974074520967393 -2.6671418142629992 3.650778905414656
4
 Step: 204. Total Energy: -0.7226001570285108 kcal/mol.
Ar 4.766144926348749 0.43631574046844546 1.3166192779429988
Ar 8.74702091282509 1.4048875202004611 -1.8562616626004964
Ar 9.163757159797878 7.184454042048369 -6.884329809912152
Ar 5.974074520967393 -2.6671418142629992 3.650778905414656
4
 Step: 205. Total Energy: -0.7187531003988912 kcal/mol.
Ar 4.766144926348749 0.43631574046844546 1.3166192779429988
Ar 8.74702091282509 1.4048875202004611 -1.8562616626004964
Ar 8.213856204322482 7.185230783648893 -7.3648288647433215
Ar 5.974074520967393 -2.6671418142629992 3.650778905414656
4
 Step: 206. Total Energy: -0.6477491393155113 kcal/mol.
Ar 4.766144926348749 0.43631574046844546 1.3166192779429988
Ar 9.353932248405341 0.8442276052824231 -1.9912016334649807
Ar 8.213856204322482 7.185230783648893 -7.3648288647433215
Ar 5.974074520967393 -2.6671418142629992 3.650778905414656
4
 Step: 207. Total Energy: -0.6529684548727538 kcal/mol.
Ar 4.766144926348749 0.43631574046844546 1.3166192779429988
Ar 9.353932248405341 0.8442276052824231 -1.9912016334649807
Ar 8.374303172478855 6.397574628296008 -7.449209049587978
Ar 5.974074520967393 -2.6671418142629992 3.650778905414656
4
 Step: 211. Total Energy: -0.6497686769877956 kcal/mol.
Ar 4.8035080838077775 -0.10402505529984185 1.9701406646379143
Ar 9.353932248405341 0.8442276052824231 -1.9912016334649807
Ar 7.894235832638465 7.241936094713107 -7.641327769290784
Ar 5.463559477570263 -3.446396752325512 3.507730481689179
4
 Step: 212. Total Energy: -0.660973713722845 kcal/mol.
Ar 5.228380165425883 0.19548550407610388 2.435992381717843
Ar 9.353932248405341 0.8442276052824231 -1.9912016334649807
Ar 7.894235832638465 7.241936094713107 -7.641327769290784
Ar 5.463559477570263 -3.446396752325512 3.507730481689179
4
 Step: 213. Total Energy: -0.6138214618421326 kcal/mol.
Ar 5.228380165425883 0.19548550407610388 2.435992381717843
Ar 10.309917571977069 1.2675537576233593 -2.609980929443628
Ar 7.894235832638465 7.241936094713107 -7.641327769290784
Ar 5.463559477570263 -3.446396752325512 3.507730481689179
4
 Step: 214. Total Energy: -0.4389623460037034 kcal/mol.
Ar 6.033559651973569 0.8725674451906058 3.2641160060153593
Ar 10.309917571977069 1.2675537576233593 -2.609980929443628
Ar 7.894235832638465 7.241936094713107 -7.641327769290784
Ar 5.463559477570263 -3.446396752325512 3.507730481689179
4
 Step: 215. Total Energy: -0.2348886835265186 kcal/mol.
Ar 6.964592796194632 1.420631818304286 3.407385587297028
Ar 10.309917571977069 1.2675537576233593 -2.609980929443628
Ar 7.894235832638465 7.241936094713107 -7.641327769290784
Ar 5.463559477570263 -3.446396752325512 3.507730481689179
4
 Step: 216. Total Energy: -0.23353492896024344 kcal/mol.
Ar 6.964592796194632 1.420631818304286 3.407385587297028
Ar 9.371458648809634 1.3208240536111204 -3.574136914793711
Ar 7.894235832638465 7.241936094713107 -7.641327769290784
Ar 5.463559477570263 -3.446396752325512 3.507730481689179
4
 Step: 217. Total Energy: -0.23588174274083984 kcal/mol.
Ar 6.197380748425057 1.5391534162783285 3.7253406010612293
Ar 9.371458648809634 1.3208240536111204 -3.574136914793711
Ar 7.894235832638465 7.241936094713107 -7.641327769290784
Ar 5.463559477570263 -3.446396752325512 3.507730481689179
4
 Step: 218. Total Energy: -0.3046643525564883 kcal/mol.
Ar 6.282165928246746 1.2192792742965803 3.928289132126689
Ar 9.371458648809634 1.3208240536111204 -3.574136914793711
Ar 7.894235832638465 7.241936094713107 -7.641327769290784
Ar 5.463559477570263 -3.446396752325512 3.507730481689179
4
 Step: 220. Total Energy: -0.2412691552413372 kcal/mol.
Ar 6.802086244308215 1.4060161620231322 3.580335724457904
Ar 9.823044028186855 1.5849820554231604 -3.9105284442667516
Ar 7.894235832638465 7.241936094713107 -7.641327769290784
Ar 5.463559477570263 -3.446396752325512 3.507730481689179
4
 Step: 222. Total Energy: -0.15166004239779984 kcal/mol.
Ar 6.802086244308215 1.4060161620231322 3.580335724457904
Ar 9.823044028186855 1.5849820554231604 -3.9105284442667516
Ar 7.705044505314961 6.744724872679194 -8.6122732717815
Ar 5.871333683221695 -4.071558544889744 3.16388546660675
4
 Step: 223. Total Energy: -0.3215615767209661 kcal/mol.
Ar 6.802086244308215 1.4060161620231322 3.580335724457904
Ar 9.823044028186855 1.5849820554231604 -3.9105284442667516
Ar 7.705044505314961 6.744724872679194 -8.6122732717815
Ar 5.6351749703342495 -3.1210281730822764 4.01032195210873
4
 Step: 225. Total Energy: -0.20174375065770342 kcal/mol.
Ar 6.966317892517087 1.8160432784013965 2.736095336182282
Ar 10.30854475892019 1.7873161581434478 -4.753209314508473
Ar 7.705044505314961 6.744724872679194 -8.6122732717815
Ar 5.6351749703342495 -3.1210281730822764 4.01032195210873
4
 Step: 226. Total Energy: -0.16905975141472251 kcal/mol.
Ar 6.966317892517087 1.8160432784013965 2.736095336182282
Ar 10.30854475892019 1.7873161581434478 -4.753209314508473
Ar 7.705044505314961 6.744724872679194 -8.6122732717815
Ar 4.925969682072496 -3.2781197732670373 3.151531191833426
4
 Step: 227. Total Energy: -0.1644936678659612 kcal/mol.
Ar 7.42796146008634 1.6595626893920419 2.9625604094640425
Ar 10.30854475892019 1.7873161581434478 -4.753209314508473
Ar 7.705044505314961 6.744724872679194 -8.6122732717815
Ar 4.925969682072496 -3.2781197732670373 3.151531191833426
4
 Step: 228. Total Energy: -0.10005826272746748 kcal/mol.
Ar 7.742151058055103 2.6027376646876603 2.353510918089985
Ar 10.30854475892019 1.7873161581434478 -4.753209314508473
Ar 7.705044505314961 6.744724872679194 -8.6122732717815
Ar 4.925969682072496 -3.2781197732670373 3.151531191833426
4
 Step: 229. Total Energy: -0.17576342218909433 kcal/mol.
Ar 7.147212233485387 1.6865455106643943 2.702941698209938
Ar 10.30854475892019 1.7873161581434478 -4.753209314508473
Ar 7.705044505314961 6.744724872679194 -8.6122732717815
Ar 4.925969682072496 -3.2781197732670373 3.151531191833426
4
 Step: 230. Total Energy: -0.204897651839993 kcal/mol.
Ar 7.147212233485387 1.6865455106643943 2.702941698209938
Ar 10.30854475892019 1.7873161581434478 -4.753209314508473
Ar 7.705044505314961 6.744724872679194 -8.6122732717815
Ar 4.8422747799845745 -3.0426249952220914 2.6373160009818655
4
 Step: 231. Total Energy: -0.16741429216401615 kcal/mol.
Ar 7.147212233485387 1.6865455106643943 2.702941698209938
Ar 10.30854475892019 1.7873161581434478 -4.753209314508473
Ar 7.705044505314961 6.744724872679194 -8.6122732717815
Ar 4.645495001790358 -3.1462537402388193 3.6299891555476655
4
 Step: 232. Total Energy: -0.15569272016774116 kcal/mol.
Ar 7.08392756205758 1.8486386718631989 2.884503834425126
Ar 10.30854475892019 1.7873161581434478 -4.753209314508473
Ar 7.705044505314961 6.744724872679194 -8.6122732717815
Ar 4.645495001790358 -3.1462537402388193 3.6299891555476655
4
 Step: 233. Total Energy: -0.18988864397890165 kcal/mol.
Ar 7.241256426295786 1.3348108574237658 2.0515522843232503
Ar 10.30854475892019 1.7873161581434478 -4.753209314508473
Ar 7.705044505314961 6.744724872679194 -8.6122732717815
Ar 4.645495001790358 -3.1462537402388193 3.6299891555476655
4
 Step: 234. Total Energy: -0.1722981189379712 kcal/mol.
Ar 7.241256426295786 1.3348108574237658 2.0515522843232503
Ar 11.052774368836353 1.092537980176864 -4.163451464465666
Ar 7.705044505314961 6.744724872679194 -8.6122732717815
Ar 4.645495001790358 -3.1462537402388193 3.6299891555476655
4
 Step: 235. Total Energy: -0.11983925958045645 kcal/mol.
Ar 7.052229345579206 1.9823878096047582 1.9856760976296293
Ar 11.052774368836353 1.092537980176864 -4.163451464465666
Ar 7.705044505314961 6.744724872679194 -8.6122732717815
Ar 4.645495001790358 -3.1462537402388193 3.6299891555476655
4
 Step: 236. Total Energy: -0.14781030389036354 kcal/mol.
Ar 7.052229345579206 1.9823878096047582 1.9856760976296293
Ar 10.85681846485348 2.082353173164239 -3.241651632065599
Ar 7.705044505314961 6.744724872679194 -8.6122732717815
Ar 4.645495001790358 -3.1462537402388193 3.6299891555476655
4
 Step: 238. Total Energy: -0.1241275489039397 kcal/mol.
Ar 6.99227797847023 2.4713896023783164 1.1584134998642166
Ar 10.85681846485348 2.082353173164239 -3.241651632065599
Ar 7.705044505314961 6.744724872679194 -8.6122732717815
Ar 4.170126682408624 -3.8339917074388836 3.8434107327431413
4
 Step: 239. Total Energy: -0.12525797907376565 kcal/mol.
Ar 6.99227797847023 2.4713896023783164 1.1584134998642166
Ar 10.85681846485348 2.082353173164239 -3.241651632065599
Ar 8.495950499865687 6.5093193024322265 -9.025703856113504
Ar 4.170126682408624 -3.8339917074388836 3.8434107327431413
4
 Step: 240. Total Energy: -0.15623666576736925 kcal/mol.
Ar 7.621784736611204 3.116393420871405 1.0529167051489425
Ar 10.85681846485348 2.082353173164239 -3.241651632065599
Ar 8.495950499865687 6.5093193024322265 -9.025703856113504
Ar 4.170126682408624 -3.8339917074388836 3.8434107327431413
4
 Step: 241. Total Energy: -0.1561246829933168 kcal/mol.
Ar 7.621784736611204 3.116393420871405 1.0529167051489425
Ar 10.85681846485348 2.082353173164239 -3.241651632065599
Ar 8.495950499865687 6.5093193024322265 -9.025703856113504
Ar 4.621036325295876 -3.7102396704457266 4.570604866004908
4
 Step: 243. Total Energy: -0.11110050949780563 kcal/mol.
Ar 6.651148273349557 3.930115792803832 0.5118572453849222
Ar 10.85681846485348 2.082353173164239 -3.241651632065599
Ar 8.495950499865687 6.5093193024322265 -9.025703856113504
Ar 3.646345128270263 -2.750625867159975 4.45498057452126
4
 Step: 244. Total Energy: -0.11028890447887059 kcal/mol.
Ar 6.651148273349557 3.930115792803832 0.5118572453849222
Ar 10.85681846485348 2.082353173164239 -3.241651632065599
Ar 8.495950499865687 6.5093193024322265 -9.025703856113504
Ar 3.8664678387564058 -3.054832656274681 4.3432792712764305
4
 Step: 245. Total Energy: -0.11890882050613963 kcal/mol.
Ar 7.048190618030007 4.17172050242082 0.6096725717040699
Ar 10.85681846485348 2.082353173164239 -3.241651632065599
Ar 8.495950499865687 6.5093193024322265 -9.025703856113504
Ar 3.8664678387564058 -3.054832656274681 4.3432792712764305
4
 Step: 246. Total Energy: -0.19082230957552526 kcal/mol.
Ar 7.048190618030007 4.17172050242082 0.6096725717040699
Ar 10.600360127622736 2.4290594270426484 -2.795382433923308
Ar 8.495950499865687 6.5093193024322265 -9.025703856113504
Ar 3.8664678387564058 -3.054832656274681 4.3432792712764305
4
 Step: 247. Total Energy: -0.3788613374313206 kcal/mol.
Ar 7.692818145872966 3.59748164822855 0.42621265408698816
Ar 10.600360127622736 2.4290594270426484 -2.795382433923308
Ar 8.495950499865687 6.5093193024322265 -9.025703856113504
Ar 3.8664678387564058 -3.054832656274681 4.3432792712764305
4
 Step: 248. Total Energy: -0.37904828156480325 kcal/mol.
Ar 7.692818145872966 3.59748164822855 0.42621265408698816
Ar 10.600360127622736 2.4290594270426484 -2.795382433923308
Ar 8.495950499865687 6.5093193024322265 -9.025703856113504
Ar 3.730234552587393 -2.350609673687269 5.114116790378676
4
 Step: 252. Total Energy: -0.4241496225641286 kcal/mol.
Ar 6.834875883438913 2.9345136684914475 0.9265069932614212
Ar 9.66302529365469 4.055240496217687 -2.280348543866678
Ar 8.495950499865687 6.5093193024322265 -9.025703856113504
Ar 3.730234552587393 -2.350609673687269 5.114116790378676
4
 Step: 253. Total Energy: -0.43395839811785003 kcal/mol.
Ar 6.834875883438913 2.9345136684914475 0.9265069932614212
Ar 9.66302529365469 4.055240496217687 -2.280348543866678
Ar 8.495950499865687 6.5093193024322265 -9.025703856113504
Ar 4.434528438531926 -1.5140924442082944 5.726739012743375
4
 Step: 254. Total Energy: -0.441612998896376 kcal/mol.
Ar 6.3542938817233265 3.2032323532143634 0.4627697882748547
Ar 9.66302529365469 4.055240496217687 -2.280348543866678
Ar 8.495950499865687 6.5093193024322265 -9.025703856113504
Ar 4.434528438531926 -1.5140924442082944 5.726739012743375
4
 Step: 255. Total Energy: -0.5557295999894514 kcal/mol.
Ar 6.138086718814557 3.7783589181618926 -0.26611434319515626
Ar 9.66302529365469 4.055240496217687 -2.280348543866678
Ar 8.495950499865687 6.5093193024322265 -9.025703856113504
Ar 4.434528438531926 -1.5140924442082944 5.726739012743375
4
 Step: 256. Total Energy: -0.4267775515202702 kcal/mol.
Ar 6.138086718814557 3.7783589181618926 -0.26611434319515626
Ar 10.087271298985065 3.5802032545147853 -2.153531417565917
Ar 8.495950499865687 6.5093193024322265 -9.025703856113504
Ar 4.434528438531926 -1.5140924442082944 5.726739012743375
4
 Step: 258. Total Energy: -0.44129587924813723 kcal/mol.
Ar 6.025018891102442 3.501264649108383 0.6907012022001433
Ar 9.8242099785371 4.011769207405644 -1.3767159177466848
Ar 8.495950499865687 6.5093193024322265 -9.025703856113504
Ar 4.434528438531926 -1.5140924442082944 5.726739012743375
4
 Step: 259. Total Energy: -0.4594748498741171 kcal/mol.
Ar 6.025018891102442 3.501264649108383 0.6907012022001433
Ar 9.8242099785371 4.011769207405644 -1.3767159177466848
Ar 8.834413788765149 6.045504814188603 -8.066481898392718
Ar 4.434528438531926 -1.5140924442082944 5.726739012743375
4
 Step: 261. Total Energy: -0.18552186158846773 kcal/mol.
Ar 5.13439288845777 4.443156755972895 1.5634927333552975
Ar 9.8242099785371 4.011769207405644 -1.3767159177466848
Ar 8.834413788765149 6.045504814188603 -8.066481898392718
Ar 3.5048731207071935 -0.6214145946252521 5.665965996178761
4
 Step: 262. Total Energy: -0.224618033294646 kcal/mol.
Ar 5.13439288845777 4.443156755972895 1.5634927333552975
Ar 9.233796085968185 4.51461068208054 -2.1327561277622897
Ar 8.834413788765149 6.045504814188603 -8.066481898392718
Ar 3.5048731207071935 -0.6214145946252521 5.665965996178761
4
 Step: 263. Total Energy: -0.25539293461080015 kcal/mol.
Ar 5.13439288845777 4.443156755972895 1.5634927333552975
Ar 9.233796085968185 4.51461068208054 -2.1327561277622897
Ar 8.08481878296029 6.31688516965967 -7.475000967413045
Ar 3.5048731207071935 -0.6214145946252521 5.665965996178761
4
 Step: 264. Total Energy: -0.2847524551064978 kcal/mol.
Ar 5.5919354202941545 3.7748706599505644 1.896184407883054
Ar 9.233796085968185 4.51461068208054 -2.1327561277622897
Ar 8.08481878296029 6.31688516965967 -7.475000967413045
Ar 3.5048731207071935 -0.6214145946252521 5.665965996178761
4
 Step: 265. Total Energy: -0.2924785660612555 kcal/mol.
Ar 5.5919354202941545 3.7748706599505644 1.896184407883054
Ar 9.233796085968185 4.51461068208054 -2.1327561277622897
Ar 7.464999286651102 5.3689285555877975 -7.464932070751309
Ar 3.5048731207071935 -0.6214145946252521 5.665965996178761
4
 Step: 266. Total Energy: -0.40752653117502663 kcal/mol.
Ar 5.5919354202941545 3.7748706599505644 1.896184407883054
Ar 8.380529541931152 4.340020787968835 -2.6118852252375735
Ar 7.464999286651102 5.3689285555877975 -7.464932070751309
Ar 3.5048731207071935 -0.6214145946252521 5.665965996178761
4
 Step: 267. Total Energy: -0.41330848506455287 kcal/mol.
Ar 5.5919354202941545 3.7748706599505644 1.896184407883054
Ar 8.380529541931152 4.340020787968835 -2.6118852252375735
Ar 7.464999286651102 5.3689285555877975 -7.464932070751309
Ar 2.6240834269579802 -0.47201896564223467 5.049823206186918
4
 Step: 268. Total Energy: -0.41636966399209696 kcal/mol.
Ar 5.5919354202941545 3.7748706599505644 1.896184407883054
Ar 8.463010184309251 4.386409984821643 -2.7312591260315084
Ar 7.464999286651102 5.3689285555877975 -7.464932070751309
Ar 2.6240834269579802 -0.47201896564223467 5.049823206186918
4
 Step: 269. Total Energy: -0.3806939840858741 kcal/mol.
Ar 5.5919354202941545 3.7748706599505644 1.896184407883054
Ar 8.463010184309251 4.386409984821643 -2.7312591260315084
Ar 7.464999286651102 5.3689285555877975 -7.464932070751309
Ar 1.6361641037418269 -1.1057859804389143 4.629690472523813
4
 Step: 270. Total Energy: -0.37561046963537664 kcal/mol.
Ar 5.5919354202941545 3.7748706599505644 1.896184407883054
Ar 8.463010184309251 4.386409984821643 -2.7312591260315084
Ar 7.464999286651102 5.3689285555877975 -7.464932070751309
Ar 2.5406443608578773 -1.5805217696436797 5.293326406114832
4
 Step: 271. Total Energy: -0.372713099868718 kcal/mol.
Ar 5.5919354202941545 3.7748706599505644 1.896184407883054
Ar 8.463010184309251 4.386409984821643 -2.7312591260315084
Ar 7.464999286651102 5.3689285555877975 -7.464932070751309
Ar 2.5251675493043684 -1.131281867335527 6.103704903888515
4
 Step: 272. Total Energy: -0.3608873568874422 kcal/mol.
Ar 5.5919354202941545 3.7748706599505644 1.896184407883054
Ar 9.435282827495985 3.6715543055988977 -3.595043913735055
Ar 7.464999286651102 5.3689285555877975 -7.464932070751309
Ar 2.5251675493043684 -1.131281867335527 6.103704903888515
4
 Step: 273. Total Energy: -0.3957415421372994 kcal/mol.
Ar 6.538963617450834 3.2611350559689742 1.5666977029644886
Ar 9.435282827495985 3.6715543055988977 -3.595043913735055
Ar 7.464999286651102 5.3689285555877975 -7.464932070751309
Ar 2.5251675493043684 -1.131281867335527 6.103704903888515
4
 Step: 275. Total Energy: -0.3852773915595859 kcal/mol.
Ar 7.438931981303883 3.1937174150968457 0.8538414228589026
Ar 10.091080249141633 3.4885704683974113 -3.7510259282725995
Ar 7.464999286651102 5.3689285555877975 -7.464932070751309
Ar 2.5251675493043684 -1.131281867335527 6.103704903888515
4
 Step: 276. Total Energy: -0.30651826177159824 kcal/mol.
Ar 7.438931981303883 3.1937174150968457 0.8538414228589026
Ar 10.758076056829646 3.3887900803996143 -4.448201173583142