4
	Step: 1. Total Energy: 15.46929446749276 kcal/mol.
Ar -0.18999569791093324 -0.0899882726523523 -0.1107157047404709
Ar 4.0 0.0 0.0
Ar 2.0 3.46 0.0
Ar 2.0 1.53 2.03
4
	Step: 2. Total Energy: 15.233459640827189 kcal/mol.
Ar -0.15379869293131737 -0.27727520085963886 -0.2732376087958339
Ar 4.0 0.0 0.0
Ar 2.0 3.46 0.0
Ar 2.0 1.53 2.03
4
	Step: 3. Total Energy: 15.327667377825419 kcal/mol.
Ar -0.12930066775587218 -0.19086735569067748 -0.19270761935973957
Ar 4.0 0.0 0.0
Ar 2.0 3.46 0.0
Ar 2.0 1.53 2.03
4
	Step: 5. Total Energy: 3.0387757737968153 kcal/mol.
Ar -0.12930066775587218 -0.19086735569067748 -0.19270761935973957
Ar 4.0 0.0 0.0
Ar 2.0 3.46 0.0
Ar 1.9361002066071968 1.3921917999247126 2.2128852288827123
4
	Step: 6. Total Energy: 2.973797054316826 kcal/mol.
Ar -0.17732974750093722 -0.24727560349682612 -0.2551253303681511
Ar 4.0 0.0 0.0
Ar 2.0 3.46 0.0
Ar 1.9361002066071968 1.3921917999247126 2.2128852288827123
4
	Step: 7. Total Energy: 3.2348194984625382 kcal/mol.
Ar -0.08543703282341009 -0.23278436691494583 -0.06587902477640284
Ar 4.0 0.0 0.0
Ar 2.0 3.46 0.0
Ar 1.9361002066071968 1.3921917999247126 2.2128852288827123
4
	Step: 9. Total Energy: 3.0376882892046346 kcal/mol.
Ar -0.2671072793611452 -0.3416250566543271 -0.15012383933555998
Ar 4.0 0.0 0.0
Ar 2.0 3.46 0.0
Ar 1.9361002066071968 1.3921917999247126 2.2128852288827123
4
	Step: 10. Total Energy: 2.603023214586233 kcal/mol.
Ar -0.2671072793611452 -0.3416250566543271 -0.15012383933555998
Ar 4.146593466702108 -0.04794950998433353 -0.018635879052625814
Ar 2.0 3.46 0.0
Ar 1.9361002066071968 1.3921917999247126 2.2128852288827123
4
	Step: 11. Total Energy: 2.426915470691436 kcal/mol.
Ar -0.2671072793611452 -0.3416250566543271 -0.15012383933555998
Ar 4.094665853548861 -0.16414669767573847 -0.11184475023298047
Ar 2.0 3.46 0.0
Ar 1.9361002066071968 1.3921917999247126 2.2128852288827123
4
	Step: 12. Total Energy: 2.4590822312576006 kcal/mol.
Ar -0.2234548770943499 -0.4731695973750883 -0.058473120155420305
Ar 4.094665853548861 -0.16414669767573847 -0.11184475023298047
Ar 2.0 3.46 0.0
Ar 1.9361002066071968 1.3921917999247126 2.2128852288827123
4
	Step: 14. Total Energy: -0.4754599069754456 kcal/mol.
Ar -0.2234548770943499 -0.4731695973750883 -0.058473120155420305
Ar 4.094665853548861 -0.16414669767573847 -0.11184475023298047
Ar 2.137140768075924 3.570399964618498 -0.10838077121435825
Ar 1.9361002066071968 1.3921917999247126 2.2128852288827123
4
	Step: 17. Total Energy: -0.4443413336900478 kcal/mol.
Ar -0.2234548770943499 -0.4731695973750883 -0.058473120155420305
Ar 4.000617920148082 -0.2654956945981451 -0.08729749656772016
Ar 2.137140768075924 3.570399964618498 -0.10838077121435825
Ar 1.9361002066071968 1.3921917999247126 2.2128852288827123
4
	Step: 20. Total Energy: -1.0252157633335295 kcal/mol.
Ar -0.2234548770943499 -0.4731695973750883 -0.058473120155420305
Ar 4.000617920148082 -0.2654956945981451 -0.08729749656772016
Ar 2.137140768075924 3.570399964618498 -0.10838077121435825
Ar 1.9746638188999863 1.3460987245945126 2.2512406002271637
4
	Step: 21. Total Energy: -2.2120975142614787 kcal/mol.
Ar -0.2234548770943499 -0.4731695973750883 -0.058473120155420305
Ar 4.000617920148082 -0.2654956945981451 -0.08729749656772016
Ar 2.325572119121371 3.7147118455122974 -0.3037883624372304
Ar 1.9746638188999863 1.3460987245945126 2.2512406002271637
4
	Step: 22. Total Energy: -2.3104597157199915 kcal/mol.
Ar -0.2234548770943499 -0.4731695973750883 -0.058473120155420305
Ar 4.000617920148082 -0.2654956945981451 -0.08729749656772016
Ar 2.4330116121843495 3.6507820347247155 -0.38638831097825993
Ar 1.9746638188999863 1.3460987245945126 2.2512406002271637
4
	Step: 23. Total Energy: -2.321485116940135 kcal/mol.
Ar -0.04192850608591786 -0.32282842122381067 -0.15311749985498402
Ar 4.000617920148082 -0.2654956945981451 -0.08729749656772016
Ar 2.4330116121843495 3.6507820347247155 -0.38638831097825993
Ar 1.9746638188999863 1.3460987245945126 2.2512406002271637
4
	Step: 24. Total Energy: -2.353317204379543 kcal/mol.
Ar -0.04192850608591786 -0.32282842122381067 -0.15311749985498402
Ar 4.003690589989812 -0.4229313654790631 -0.037177419141153176
Ar 2.4330116121843495 3.6507820347247155 -0.38638831097825993
Ar 1.9746638188999863 1.3460987245945126 2.2512406002271637
4
	Step: 26. Total Energy: -2.472888770886784 kcal/mol.
Ar -0.0023506723018262565 -0.3273861380122315 -0.308370409726626
Ar 4.003690589989812 -0.4229313654790631 -0.037177419141153176
Ar 2.4330116121843495 3.6507820347247155 -0.38638831097825993
Ar 1.9746638188999863 1.3460987245945126 2.2512406002271637
4
	Step: 27. Total Energy: -2.2919234648112137 kcal/mol.
Ar -0.0023506723018262565 -0.3273861380122315 -0.308370409726626
Ar 4.003690589989812 -0.4229313654790631 -0.037177419141153176
Ar 2.328792536319573 3.547130671703609 -0.3594455335026959
Ar 1.9746638188999863 1.3460987245945126 2.2512406002271637
4
	Step: 28. Total Energy: -1.8424806008960892 kcal/mol.
Ar -0.0023506723018262565 -0.3273861380122315 -0.308370409726626
Ar 4.003690589989812 -0.4229313654790631 -0.037177419141153176
Ar 2.328792536319573 3.547130671703609 -0.3594455335026959
Ar 2.1010731202680217 1.5372925220654463 2.26432306803897
4
	Step: 29. Total Energy: -1.8970045938775768 kcal/mol.
Ar -0.0023506723018262565 -0.3273861380122315 -0.308370409726626
Ar 4.003690589989812 -0.4229313654790631 -0.037177419141153176
Ar 2.328792536319573 3.547130671703609 -0.3594455335026959
Ar 2.279812592150018 1.4033433056550972 2.275392583006272
4
	Step: 30. Total Energy: -1.7878411675206591 kcal/mol.
Ar -0.0023506723018262565 -0.3273861380122315 -0.308370409726626
Ar 4.175255987190683 -0.32082528682474093 0.03876963369869542
Ar 2.328792536319573 3.547130671703609 -0.3594455335026959
Ar 2.279812592150018 1.4033433056550972 2.275392583006272
4
	Step: 32. Total Energy: -1.5957802824139442 kcal/mol.
Ar -0.10318842683542309 -0.5017757794816935 -0.49995670572380246
Ar 4.175255987190683 -0.32082528682474093 0.03876963369869542
Ar 2.328792536319573 3.547130671703609 -0.3594455335026959
Ar 2.279812592150018 1.4033433056550972 2.275392583006272
4
	Step: 33. Total Energy: -1.6411473738529503 kcal/mol.
Ar -0.10318842683542309 -0.5017757794816935 -0.49995670572380246
Ar 3.9781323227847203 -0.23768890820535932 -0.13768085955077525
Ar 2.328792536319573 3.547130671703609 -0.3594455335026959
Ar 2.279812592150018 1.4033433056550972 2.275392583006272
4
	Step: 34. Total Energy: -1.6301689202328542 kcal/mol.
Ar 0.040665733266075504 -0.6734328395262321 -0.6047548519762044
Ar 3.9781323227847203 -0.23768890820535932 -0.13768085955077525
Ar 2.328792536319573 3.547130671703609 -0.3594455335026959
Ar 2.279812592150018 1.4033433056550972 2.275392583006272
4
	Step: 36. Total Energy: -1.9442698323221546 kcal/mol.
Ar 0.040665733266075504 -0.6734328395262321 -0.6047548519762044
Ar 4.0919800925010215 -0.11469010909870192 -0.26151689380602416
Ar 2.328792536319573 3.547130671703609 -0.3594455335026959
Ar 2.279812592150018 1.4033433056550972 2.275392583006272
4
	Step: 37. Total Energy: -2.5439789400758532 kcal/mol.
Ar 0.040665733266075504 -0.6734328395262321 -0.6047548519762044
Ar 4.0919800925010215 -0.11469010909870192 -0.26151689380602416
Ar 2.328792536319573 3.547130671703609 -0.3594455335026959
Ar 2.2215316187858396 1.3677842160749925 2.4209272823541133
4
	Step: 38. Total Energy: -2.495018882072267 kcal/mol.
Ar -0.13508919710311904 -0.5821474041497591 -0.48451784763152483
Ar 4.0919800925010215 -0.11469010909870192 -0.26151689380602416
Ar 2.328792536319573 3.547130671703609 -0.3594455335026959
Ar 2.2215316187858396 1.3677842160749925 2.4209272823541133
4
	Step: 39. Total Energy: -2.51622745220168 kcal/mol.
Ar -0.13508919710311904 -0.5821474041497591 -0.48451784763152483
Ar 3.968063655877346 -0.13524468996544917 -0.29276423787226247
Ar 2.328792536319573 3.547130671703609 -0.3594455335026959
Ar 2.2215316187858396 1.3677842160749925 2.4209272823541133
4
	Step: 40. Total Energy: -2.44820158259593 kcal/mol.
Ar -0.13508919710311904 -0.5821474041497591 -0.48451784763152483
Ar 4.117858037505578 -0.30509073461573344 -0.16955533997958144
Ar 2.328792536319573 3.547130671703609 -0.3594455335026959
Ar 2.2215316187858396 1.3677842160749925 2.4209272823541133
4
	Step: 41. Total Energy: -2.4348589352181036 kcal/mol.
Ar -0.31485386529316656 -0.38243441678466844 -0.35010681359954404
Ar 4.117858037505578 -0.30509073461573344 -0.16955533997958144
Ar 2.328792536319573 3.547130671703609 -0.3594455335026959
Ar 2.2215316187858396 1.3677842160749925 2.4209272823541133
4
	Step: 42. Total Energy: -2.526023409657351 kcal/mol.
Ar -0.31485386529316656 -0.38243441678466844 -0.35010681359954404
Ar 3.9843824817471436 -0.31083428443544603 -0.2840564202999088
Ar 2.328792536319573 3.547130671703609 -0.3594455335026959
Ar 2.2215316187858396 1.3677842160749925 2.4209272823541133
4
	Step: 44. Total Energy: -2.6176889354976605 kcal/mol.
Ar -0.31485386529316656 -0.38243441678466844 -0.35010681359954404
Ar 3.9843824817471436 -0.31083428443544603 -0.2840564202999088
Ar 2.328792536319573 3.547130671703609 -0.3594455335026959
Ar 2.135631310364608 1.4464208175150575 2.5131294093202996
4
	Step: 45. Total Energy: -2.7338975851497187 kcal/mol.
Ar -0.31485386529316656 -0.38243441678466844 -0.35010681359954404
Ar 3.9843824817471436 -0.31083428443544603 -0.2840564202999088
Ar 2.328792536319573 3.547130671703609 -0.3594455335026959
Ar 1.9975500404742335 1.3651039477128832 2.700613155307963
4
	Step: 46. Total Energy: -2.745196532678049 kcal/mol.
Ar -0.2156636411415409 -0.5595683076216752 -0.31643577581595556
Ar 3.9843824817471436 -0.31083428443544603 -0.2840564202999088
Ar 2.328792536319573 3.547130671703609 -0.3594455335026959
Ar 1.9975500404742335 1.3651039477128832 2.700613155307963
4
	Step: 47. Total Energy: -2.854877661291339 kcal/mol.
Ar -0.2156636411415409 -0.5595683076216752 -0.31643577581595556
Ar 3.8071343136386173 -0.3077028856380786 -0.14351940216226022
Ar 2.328792536319573 3.547130671703609 -0.3594455335026959
Ar 1.9975500404742335 1.3651039477128832 2.700613155307963
4
	Step: 48. Total Energy: -2.8082811516413693 kcal/mol.
Ar -0.14557861969990482 -0.6654867496213027 -0.4684811302371059
Ar 3.8071343136386173 -0.3077028856380786 -0.14351940216226022
Ar 2.328792536319573 3.547130671703609 -0.3594455335026959
Ar 1.9975500404742335 1.3651039477128832 2.700613155307963
4
	Step: 49. Total Energy: -2.707850740066365 kcal/mol.
Ar -0.14557861969990482 -0.6654867496213027 -0.4684811302371059
Ar 3.8387019366415016 -0.4918062207224529 -0.31072603996431003
Ar 2.328792536319573 3.547130671703609 -0.3594455335026959
Ar 1.9975500404742335 1.3651039477128832 2.700613155307963
4
	Step: 50. Total Energy: -2.7301537296018856 kcal/mol.
Ar -0.14557861969990482 -0.6654867496213027 -0.4684811302371059
Ar 3.8387019366415016 -0.4918062207224529 -0.31072603996431003
Ar 2.502675039414144 3.4288343514730233 -0.27296881318693
Ar 1.9975500404742335 1.3651039477128832 2.700613155307963
4
	Step: 51. Total Energy: -2.7050761230858833 kcal/mol.
Ar -0.14557861969990482 -0.6654867496213027 -0.4684811302371059
Ar 3.8387019366415016 -0.4918062207224529 -0.31072603996431003
Ar 2.502675039414144 3.4288343514730233 -0.27296881318693
Ar 1.849901353325216 1.423304263247943 2.683502984336144
4
	Step: 52. Total Energy: -2.5958968656899906 kcal/mol.
Ar -0.34185243694620626 -0.6170230474240657 -0.4432836719815275
Ar 3.8387019366415016 -0.4918062207224529 -0.31072603996431003
Ar 2.502675039414144 3.4288343514730233 -0.27296881318693
Ar 1.849901353325216 1.423304263247943 2.683502984336144
4
	Step: 53. Total Energy: -2.494565877420934 kcal/mol.
Ar -0.34185243694620626 -0.6170230474240657 -0.4432836719815275
Ar 3.841055814261008 -0.638823592575866 -0.37112250597850405
Ar 2.502675039414144 3.4288343514730233 -0.27296881318693
Ar 1.849901353325216 1.423304263247943 2.683502984336144
4
	Step: 54. Total Energy: -2.487716871198687 kcal/mol.
Ar -0.34185243694620626 -0.6170230474240657 -0.4432836719815275
Ar 3.7888666497565615 -0.7757248596329731 -0.23762452412258123
Ar 2.502675039414144 3.4288343514730233 -0.27296881318693
Ar 1.849901353325216 1.423304263247943 2.683502984336144
4
	Step: 55. Total Energy: -2.5963367349646913 kcal/mol.
Ar -0.27470715546117286 -0.5951821344281946 -0.27058125620709655
Ar 3.7888666497565615 -0.7757248596329731 -0.23762452412258123
Ar 2.502675039414144 3.4288343514730233 -0.27296881318693
Ar 1.849901353325216 1.423304263247943 2.683502984336144
4
	Step: 56. Total Energy: -2.7639031124581814 kcal/mol.
Ar -0.27470715546117286 -0.5951821344281946 -0.27058125620709655
Ar 3.6946530183514126 -0.6198397768306894 -0.14065785053018176
Ar 2.502675039414144 3.4288343514730233 -0.27296881318693
Ar 1.849901353325216 1.423304263247943 2.683502984336144
4
	Step: 57. Total Energy: -2.777351726217967 kcal/mol.
Ar -0.27470715546117286 -0.5951821344281946 -0.27058125620709655
Ar 3.6946530183514126 -0.6198397768306894 -0.14065785053018176
Ar 2.5446069702262335 3.5158792263285426 -0.3915298882559488
Ar 1.849901353325216 1.423304263247943 2.683502984336144
4
	Step: 58. Total Energy: -2.7348207169355963 kcal/mol.
Ar -0.27470715546117286 -0.5951821344281946 -0.27058125620709655
Ar 3.6946530183514126 -0.6198397768306894 -0.14065785053018176
Ar 2.5467705934654283 3.4163277271565002 -0.22826626976852005
Ar 1.849901353325216 1.423304263247943 2.683502984336144
4
	Step: 59. Total Energy: -2.798756840015833 kcal/mol.
Ar -0.27470715546117286 -0.5951821344281946 -0.27058125620709655
Ar 3.6946530183514126 -0.6198397768306894 -0.14065785053018176
Ar 2.5467705934654283 3.4163277271565002 -0.22826626976852005
Ar 1.9816405890741038 1.2409389679675629 2.6169255997781793
4
	Step: 60. Total Energy: -2.683797374783546 kcal/mol.
Ar -0.27470715546117286 -0.5951821344281946 -0.27058125620709655
Ar 3.6946530183514126 -0.6198397768306894 -0.14065785053018176
Ar 2.411403383974983 3.3930619319008404 -0.14599929106452375
Ar 1.9816405890741038 1.2409389679675629 2.6169255997781793
4
	Step: 61. Total Energy: -2.659529340665322 kcal/mol.
Ar -0.44460961143166605 -0.44193957710813736 -0.10900982758313926
Ar 3.6946530183514126 -0.6198397768306894 -0.14065785053018176
Ar 2.411403383974983 3.3930619319008404 -0.14599929106452375
Ar 1.9816405890741038 1.2409389679675629 2.6169255997781793
4
	Step: 62. Total Energy: -2.8068712957417863 kcal/mol.
Ar -0.44460961143166605 -0.44193957710813736 -0.10900982758313926
Ar 3.6946530183514126 -0.6198397768306894 -0.14065785053018176
Ar 2.4444072105709003 3.2522994461278336 -0.29502108335166827
Ar 1.9816405890741038 1.2409389679675629 2.6169255997781793
4
	Step: 63. Total Energy: -2.8576475312250254 kcal/mol.
Ar -0.2850397568210762 -0.5579089617722357 -0.2091979318939695
Ar 3.6946530183514126 -0.6198397768306894 -0.14065785053018176
Ar 2.4444072105709003 3.2522994461278336 -0.29502108335166827
Ar 1.9816405890741038 1.2409389679675629 2.6169255997781793
4
	Step: 64. Total Energy: -2.836099962039543 kcal/mol.
Ar -0.2850397568210762 -0.5579089617722357 -0.2091979318939695
Ar 3.6946530183514126 -0.6198397768306894 -0.14065785053018176
Ar 2.4444072105709003 3.2522994461278336 -0.29502108335166827
Ar 2.1711753981290194 1.3407300124249786 2.787231128806002
4
	Step: 65. Total Energy: -2.7728207684162207 kcal/mol.
Ar -0.2850397568210762 -0.5579089617722357 -0.2091979318939695
Ar 3.8851354315237976 -0.4955310888545306 0.011908631335148023
Ar 2.4444072105709003 3.2522994461278336 -0.29502108335166827
Ar 2.1711753981290194 1.3407300124249786 2.787231128806002
4
	Step: 66. Total Energy: -2.7125075342475 kcal/mol.
Ar -0.2850397568210762 -0.5579089617722357 -0.2091979318939695
Ar 3.8851354315237976 -0.4955310888545306 0.011908631335148023
Ar 2.557361809029953 3.216984712748455 -0.22705823163638955
Ar 2.1711753981290194 1.3407300124249786 2.787231128806002
4
	Step: 67. Total Energy: -2.7740576166176703 kcal/mol.
Ar -0.2850397568210762 -0.5579089617722357 -0.2091979318939695
Ar 3.7918577153615862 -0.3805812852003422 -0.14485311810366913
Ar 2.557361809029953 3.216984712748455 -0.22705823163638955
Ar 2.1711753981290194 1.3407300124249786 2.787231128806002
4
	Step: 68. Total Energy: -2.668124331101071 kcal/mol.
Ar -0.2850397568210762 -0.5579089617722357 -0.2091979318939695
Ar 3.7918577153615862 -0.3805812852003422 -0.14485311810366913
Ar 2.557361809029953 3.216984712748455 -0.22705823163638955
Ar 2.060148885147285 1.4673646546637502 2.771352422677579
4
	Step: 69. Total Energy: -2.6871772613128297 kcal/mol.
Ar -0.2850397568210762 -0.5579089617722357 -0.2091979318939695
Ar 3.6810271342439096 -0.3165680121008906 -0.18546672667775574
Ar 2.557361809029953 3.216984712748455 -0.22705823163638955
Ar 2.060148885147285 1.4673646546637502 2.771352422677579
4
	Step: 70. Total Energy: -2.762048419593636 kcal/mol.
Ar -0.09828411520173169 -0.6462589646834871 -0.15260523645091845
Ar 3.6810271342439096 -0.3165680121008906 -0.18546672667775574
Ar 2.557361809029953 3.216984712748455 -0.22705823163638955
Ar 2.060148885147285 1.4673646546637502 2.771352422677579
4
	Step: 72. Total Energy: -2.8968785779467106 kcal/mol.
Ar -0.09828411520173169 -0.6462589646834871 -0.15260523645091845
Ar 3.6810271342439096 -0.3165680121008906 -0.18546672667775574
Ar 2.372664687971258 3.255613214743553 -0.2887833869644695
Ar 2.060148885147285 1.4673646546637502 2.771352422677579
4
	Step: 73. Total Energy: -2.8143456309894743 kcal/mol.
Ar -0.09828411520173169 -0.6462589646834871 -0.15260523645091845
Ar 3.6810271342439096 -0.3165680121008906 -0.18546672667775574
Ar 2.372664687971258 3.255613214743553 -0.2887833869644695
Ar 2.1026324264697425 1.4719338785315415 2.7254305960154697
4
	Step: 74. Total Energy: -2.7867116140948136 kcal/mol.
Ar -0.09828411520173169 -0.6462589646834871 -0.15260523645091845
Ar 3.6810271342439096 -0.3165680121008906 -0.18546672667775574
Ar 2.1904193014565507 3.230036220925542 -0.2808152475378353
Ar 2.1026324264697425 1.4719338785315415 2.7254305960154697
4
	Step: 75. Total Energy: -2.746622732469322 kcal/mol.
Ar -0.09828411520173169 -0.6462589646834871 -0.15260523645091845
Ar 3.626715722956415 -0.4885784876503665 -0.11977165271324683
Ar 2.1904193014565507 3.230036220925542 -0.2808152475378353
Ar 2.1026324264697425 1.4719338785315415 2.7254305960154697
4
	Step: 77. Total Energy: -2.6921556419179136 kcal/mol.
Ar -0.09828411520173169 -0.6462589646834871 -0.15260523645091845
Ar 3.626715722956415 -0.4885784876503665 -0.11977165271324683
Ar 2.1904193014565507 3.230036220925542 -0.2808152475378353
Ar 2.0331055884127025 1.5508172442093011 2.747195587082187
4
	Step: 78. Total Energy: -2.5009243687978717 kcal/mol.
Ar -0.09828411520173169 -0.6462589646834871 -0.15260523645091845
Ar 3.626715722956415 -0.4885784876503665 -0.11977165271324683
Ar 2.1904193014565507 3.230036220925542 -0.2808152475378353
Ar 2.1040327665217955 1.7119394625023343 2.793401553462739
4
	Step: 79. Total Energy: -2.4544541045280277 kcal/mol.
Ar -0.17673413549439018 -0.7621858907304303 -0.038301705459886426
Ar 3.626715722956415 -0.4885784876503665 -0.11977165271324683
Ar 2.1904193014565507 3.230036220925542 -0.2808152475378353
Ar 2.1040327665217955 1.7119394625023343 2.793401553462739
4
	Step: 80. Total Energy: -2.707321486056221 kcal/mol.
Ar -0.17673413549439018 -0.7621858907304303 -0.038301705459886426
Ar 3.626715722956415 -0.4885784876503665 -0.11977165271324683
Ar 2.1764145775553563 3.206900140647465 -0.3953346871421952
Ar 2.1040327665217955 1.7119394625023343 2.793401553462739
4
	Step: 81. Total Energy: -2.6587933894656075 kcal/mol.
Ar -0.17673413549439018 -0.7621858907304303 -0.038301705459886426
Ar 3.690256020955784 -0.5750639256531556 -0.05423011819124732
Ar 2.1764145775553563 3.206900140647465 -0.3953346871421952
Ar 2.1040327665217955 1.7119394625023343 2.793401553462739
4
	Step: 82. Total Energy: -2.768716671191508 kcal/mol.
Ar -0.04936474967972446 -0.6617306357141375 0.030816562762980393
Ar 3.690256020955784 -0.5750639256531556 -0.05423011819124732
Ar 2.1764145775553563 3.206900140647465 -0.3953346871421952
Ar 2.1040327665217955 1.7119394625023343 2.793401553462739
4
	Step: 83. Total Energy: -2.6434960255898226 kcal/mol.
Ar -0.04936474967972446 -0.6617306357141375 0.030816562762980393
Ar 3.549197605854093 -0.7565784384160522 0.13934429092149328
Ar 2.1764145775553563 3.206900140647465 -0.3953346871421952
Ar 2.1040327665217955 1.7119394625023343 2.793401553462739
4
	Step: 84. Total Energy: -2.7517542439083806 kcal/mol.
Ar -0.06719828232768879 -0.5072758720937449 0.06108492252670766
Ar 3.549197605854093 -0.7565784384160522 0.13934429092149328
Ar 2.1764145775553563 3.206900140647465 -0.3953346871421952
Ar 2.1040327665217955 1.7119394625023343 2.793401553462739
4
	Step: 85. Total Energy: -2.9016971937590568 kcal/mol.
Ar -0.06719828232768879 -0.5072758720937449 0.06108492252670766
Ar 3.549197605854093 -0.7565784384160522 0.13934429092149328
Ar 2.1764145775553563 3.206900140647465 -0.3953346871421952
Ar 2.10178363412597 1.6095332383337098 2.8558247579074525
4
	Step: 86. Total Energy: -2.736408275718975 kcal/mol.
Ar 0.044169880379241216 -0.6197394173688171 0.18272886499596486
Ar 3.549197605854093 -0.7565784384160522 0.13934429092149328
Ar 2.1764145775553563 3.206900140647465 -0.3953346871421952
Ar 2.10178363412597 1.6095332383337098 2.8558247579074525
4
	Step: 87. Total Energy: -2.8017788717094247 kcal/mol.
Ar 0.044169880379241216 -0.6197394173688171 0.18272886499596486
Ar 3.549197605854093 -0.7565784384160522 0.13934429092149328
Ar 2.1764145775553563 3.206900140647465 -0.3953346871421952
Ar 1.9218709881822265 1.5092125501976985 2.9951592968481164
4
	Step: 89. Total Energy: -2.7624220007496323 kcal/mol.
Ar 0.044169880379241216 -0.6197394173688171 0.18272886499596486
Ar 3.549197605854093 -0.7565784384160522 0.13934429092149328
Ar 2.1764145775553563 3.206900140647465 -0.3953346871421952
Ar 1.9669319172869315 1.5969221347080853 2.997070562777877
4
	Step: 90. Total Energy: -2.700670563087681 kcal/mol.
Ar 0.044169880379241216 -0.6197394173688171 0.18272886499596486
Ar 3.549197605854093 -0.7565784384160522 0.13934429092149328
Ar 2.1764145775553563 3.206900140647465 -0.3953346871421952
Ar 2.1258151585802363 1.6943843115719193 2.9869403375070984
4
	Step: 91. Total Energy: -2.8264546173789533 kcal/mol.
Ar 0.044169880379241216 -0.6197394173688171 0.18272886499596486
Ar 3.6851427609908614 -0.845653897163756 0.25041422505508204
Ar 2.1764145775553563 3.206900140647465 -0.3953346871421952
Ar 2.1258151585802363 1.6943843115719193 2.9869403375070984
4
	Step: 92. Total Energy: -2.6522425632092417 kcal/mol.
Ar 0.044169880379241216 -0.6197394173688171 0.18272886499596486
Ar 3.5949817397578765 -1.0146605556178616 0.16470548540034302
Ar 2.1764145775553563 3.206900140647465 -0.3953346871421952
Ar 2.1258151585802363 1.6943843115719193 2.9869403375070984
4
	Step: 93. Total Energy: -2.758496095498891 kcal/mol.
Ar 0.044169880379241216 -0.6197394173688171 0.18272886499596486
Ar 3.5949817397578765 -1.0146605556178616 0.16470548540034302
Ar 2.333625310671483 3.0391312037105322 -0.5350024239369606
Ar 2.1258151585802363 1.6943843115719193 2.9869403375070984
4
	Step: 94. Total Energy: -2.7210808600462113 kcal/mol.
Ar 0.044169880379241216 -0.6197394173688171 0.18272886499596486
Ar 3.6775493964356976 -1.1889690153323105 0.1277452332669777
Ar 2.333625310671483 3.0391312037105322 -0.5350024239369606
Ar 2.1258151585802363 1.6943843115719193 2.9869403375070984
4
	Step: 95. Total Energy: -2.6681569388661126 kcal/mol.
Ar 0.044169880379241216 -0.6197394173688171 0.18272886499596486
Ar 3.6775493964356976 -1.1889690153323105 0.1277452332669777
Ar 2.333625310671483 3.0391312037105322 -0.5350024239369606
Ar 1.9507214428136703 1.8275407793081144 2.9427310625738747
4
	Step: 96. Total Energy: -2.6465304616295864 kcal/mol.
Ar 0.18686269330081492 -0.5135015869215893 0.1348812765670495
Ar 3.6775493964356976 -1.1889690153323105 0.1277452332669777
Ar 2.333625310671483 3.0391312037105322 -0.5350024239369606
Ar 1.9507214428136703 1.8275407793081144 2.9427310625738747
4
	Step: 98. Total Energy: -2.6154210414600083 kcal/mol.
Ar 0.18686269330081492 -0.5135015869215893 0.1348812765670495
Ar 3.6728411874557976 -1.2797948906270078 0.12200203078637786
Ar 2.333625310671483 3.0391312037105322 -0.5350024239369606
Ar 1.9507214428136703 1.8275407793081144 2.9427310625738747
4
	Step: 100. Total Energy: -2.3399195161410695 kcal/mol.
Ar 0.3496342383355222 -0.47674447667042497 0.20008117930151403
Ar 3.6728411874557976 -1.2797948906270078 0.12200203078637786
Ar 2.333625310671483 3.0391312037105322 -0.5350024239369606
Ar 1.9507214428136703 1.8275407793081144 2.9427310625738747
4
	Step: 101. Total Energy: -2.229859861552301 kcal/mol.
Ar 0.3496342383355222 -0.47674447667042497 0.20008117930151403
Ar 3.6728411874557976 -1.2797948906270078 0.12200203078637786
Ar 2.333625310671483 3.0391312037105322 -0.5350024239369606
Ar 1.805001237705896 1.812220156928719 2.7628449159693256
4
	Step: 102. Total Energy: -2.215587280268985 kcal/mol.
Ar 0.3496342383355222 -0.47674447667042497 0.20008117930151403
Ar 3.6547209174623903 -1.3447946713974595 0.2738580251871361
Ar 2.333625310671483 3.0391312037105322 -0.5350024239369606
Ar 1.805001237705896 1.812220156928719 2.7628449159693256
4
	Step: 104. Total Energy: -1.4834252906843945 kcal/mol.
Ar 0.3496342383355222 -0.47674447667042497 0.20008117930151403
Ar 3.6547209174623903 -1.3447946713974595 0.2738580251871361
Ar 2.223314176959382 2.86657855189164 -0.3520881828264133
Ar 1.805001237705896 1.812220156928719 2.7628449159693256
4
	Step: 106. Total Energy: -1.5551793536122378 kcal/mol.
Ar 0.3496342383355222 -0.47674447667042497 0.20008117930151403
Ar 3.6441453418408414 -1.4990388929537368 0.45296083407379684
Ar 2.223314176959382 2.86657855189164 -0.3520881828264133
Ar 1.805001237705896 1.812220156928719 2.7628449159693256
4
	Step: 109. Total Energy: -1.9836340076955892 kcal/mol.
Ar 0.3496342383355222 -0.47674447667042497 0.20008117930151403
Ar 3.6441453418408414 -1.4990388929537368 0.45296083407379684
Ar 2.2536328683243476 3.029789012310618 -0.4019653990562859
Ar 1.805001237705896 1.812220156928719 2.7628449159693256
4
	Step: 110. Total Energy: -1.181928094190884 kcal/mol.
Ar 0.3496342383355222 -0.47674447667042497 0.20008117930151403
Ar 3.474543932978065 -1.4227931265805447 0.5038577923142147
Ar 2.2536328683243476 3.029789012310618 -0.4019653990562859
Ar 1.805001237705896 1.812220156928719 2.7628449159693256
4
	Step: 111. Total Energy: -1.5115110201033573 kcal/mol.
Ar 0.3496342383355222 -0.47674447667042497 0.20008117930151403
Ar 3.474543932978065 -1.4227931265805447 0.5038577923142147
Ar 2.393750163959866 3.0699536582373557 -0.5535433730293599
Ar 1.805001237705896 1.812220156928719 2.7628449159693256
4
	Step: 112. Total Energy: -1.8766133451196123 kcal/mol.
Ar 0.2885157444589018 -0.5053932713765272 0.1483095297887365
Ar 3.474543932978065 -1.4227931265805447 0.5038577923142147
Ar 2.393750163959866 3.0699536582373557 -0.5535433730293599
Ar 1.805001237705896 1.812220156928719 2.7628449159693256
4
	Step: 113. Total Energy: -1.8731119799867195 kcal/mol.
Ar 0.2885157444589018 -0.5053932713765272 0.1483095297887365
Ar 3.474543932978065 -1.4227931265805447 0.5038577923142147
Ar 2.1988110240262073 3.0379771545740866 -0.5574626910331966
Ar 1.805001237705896 1.812220156928719 2.7628449159693256
4
	Step: 114. Total Energy: -1.7624444773642645 kcal/mol.
Ar 0.2885157444589018 -0.5053932713765272 0.1483095297887365
Ar 3.474543932978065 -1.4227931265805447 0.5038577923142147
Ar 2.2530450664667856 3.16946007897507 -0.47453923355076577
Ar 1.805001237705896 1.812220156928719 2.7628449159693256
4
	Step: 115. Total Energy: -1.6244355016044774 kcal/mol.
Ar 0.2885157444589018 -0.5053932713765272 0.1483095297887365
Ar 3.474543932978065 -1.4227931265805447 0.5038577923142147
Ar 2.299410008088206 3.3373071417361766 -0.3646826534021359
Ar 1.805001237705896 1.812220156928719 2.7628449159693256
4
	Step: 116. Total Energy: -0.8711049744019321 kcal/mol.
Ar 0.2885157444589018 -0.5053932713765272 0.1483095297887365
Ar 3.474543932978065 -1.4227931265805447 0.5038577923142147
Ar 2.2283318412806534 3.235505209373653 -0.19083390195653582
Ar 1.805001237705896 1.812220156928719 2.7628449159693256
4
	Step: 117. Total Energy: -1.1938651810881546 kcal/mol.
Ar 0.2885157444589018 -0.5053932713765272 0.1483095297887365
Ar 3.474543932978065 -1.4227931265805447 0.5038577923142147
Ar 2.2283318412806534 3.235505209373653 -0.19083390195653582
Ar 1.7025466133822784 1.7981035435700117 2.806977597661534
4
	Step: 118. Total Energy: -1.073475763413028 kcal/mol.
Ar 0.28623834590527064 -0.5753876042210234 0.14332950274527423
Ar 3.474543932978065 -1.4227931265805447 0.5038577923142147
Ar 2.2283318412806534 3.235505209373653 -0.19083390195653582
Ar 1.7025466133822784 1.7981035435700117 2.806977597661534
4
	Step: 119. Total Energy: -0.9394109952962593 kcal/mol.
Ar 0.28623834590527064 -0.5753876042210234 0.14332950274527423
Ar 3.474543932978065 -1.4227931265805447 0.5038577923142147
Ar 2.164467378546367 3.3876332012769432 -0.1103604018236552
Ar 1.7025466133822784 1.7981035435700117 2.806977597661534
4
	Step: 120. Total Energy: -0.7190014524732364 kcal/mol.
Ar 0.2928892465912443 -0.6989650348101839 0.0398719228943462
Ar 3.474543932978065 -1.4227931265805447 0.5038577923142147
Ar 2.164467378546367 3.3876332012769432 -0.1103604018236552
Ar 1.7025466133822784 1.7981035435700117 2.806977597661534
4
	Step: 121. Total Energy: -1.1001299214024869 kcal/mol.
Ar 0.2928892465912443 -0.6989650348101839 0.0398719228943462
Ar 3.5507876687566746 -1.3644319666841638 0.5001863263456492
Ar 2.164467378546367 3.3876332012769432 -0.1103604018236552
Ar 1.7025466133822784 1.7981035435700117 2.806977597661534
4
	Step: 122. Total Energy: -1.3896477071869568 kcal/mol.
Ar 0.21058347911944325 -0.7372045833390126 -0.06280601155495094
Ar 3.5507876687566746 -1.3644319666841638 0.5001863263456492
Ar 2.164467378546367 3.3876332012769432 -0.1103604018236552
Ar 1.7025466133822784 1.7981035435700117 2.806977597661534
4
	Step: 123. Total Energy: -1.5284181295486576 kcal/mol.