4
 Step: 1. Total Energy: 9.301955003389063 kcal/mol.
Ar 0.0 0.0 0.0
Ar 4.0 0.0 0.0
Ar 2.0 3.46 0.0
Ar 2.0816040491179457 1.5126225794517536 2.141203610460321
4
 Step: 2. Total Energy: 9.126978920008657 kcal/mol.
Ar 0.0 0.0 0.0
Ar 4.0 0.0 0.0
Ar 2.133960650528994 3.265654994435608 -0.1655849571892678
Ar 2.0816040491179457 1.5126225794517536 2.141203610460321
4
 Step: 4. Total Energy: 5.993042917501127 kcal/mol.
Ar 0.0 0.0 0.0
Ar 4.0 0.0 0.0
Ar 2.274081551999638 3.1373927278927547 -0.3397491535629561
Ar 2.0816040491179457 1.5126225794517536 2.141203610460321
4
 Step: 5. Total Energy: 6.391195406775427 kcal/mol.
Ar 0.0 0.0 0.0
Ar 4.130481308183628 0.026382887921850534 0.17010332617017976
Ar 2.274081551999638 3.1373927278927547 -0.3397491535629561
Ar 2.0816040491179457 1.5126225794517536 2.141203610460321
4
 Step: 6. Total Energy: 5.07648720320129 kcal/mol.
Ar 0.0 0.0 0.0
Ar 4.130481308183628 0.026382887921850534 0.17010332617017976
Ar 2.274081551999638 3.1373927278927547 -0.3397491535629561
Ar 1.976913953946074 1.4099837323135846 2.1369204765746503
4
 Step: 7. Total Energy: 3.8916955181637105 kcal/mol.
Ar 0.0 0.0 0.0
Ar 4.176959612925916 -0.16805367747554908 0.07379801281587259
Ar 2.274081551999638 3.1373927278927547 -0.3397491535629561
Ar 1.976913953946074 1.4099837323135846 2.1369204765746503
4
 Step: 9. Total Energy: 3.495402828539376 kcal/mol.
Ar 0.0 0.0 0.0
Ar 4.3655984896211475 -0.2548211353290873 -0.07065629924349323
Ar 2.274081551999638 3.1373927278927547 -0.3397491535629561
Ar 1.976913953946074 1.4099837323135846 2.1369204765746503
4
 Step: 10. Total Energy: 3.4372428535427892 kcal/mol.
Ar 0.0 0.0 0.0
Ar 4.267526592284335 -0.19722971212735357 -0.1993042544158825
Ar 2.274081551999638 3.1373927278927547 -0.3397491535629561
Ar 1.976913953946074 1.4099837323135846 2.1369204765746503
4
 Step: 11. Total Energy: 2.842438377707489 kcal/mol.
Ar -0.1469475871308585 0.15873220025350426 -0.08189154779129866
Ar 4.267526592284335 -0.19722971212735357 -0.1993042544158825
Ar 2.274081551999638 3.1373927278927547 -0.3397491535629561
Ar 1.976913953946074 1.4099837323135846 2.1369204765746503
4
 Step: 13. Total Energy: -0.5795169431168483 kcal/mol.
Ar -0.1469475871308585 0.15873220025350426 -0.08189154779129866
Ar 4.267526592284335 -0.19722971212735357 -0.1993042544158825
Ar 2.238163659375386 3.2926102806384185 -0.4968981645670246
Ar 1.976913953946074 1.4099837323135846 2.1369204765746503
4
 Step: 15. Total Energy: -0.5751578818081748 kcal/mol.
Ar -0.1469475871308585 0.15873220025350426 -0.08189154779129866
Ar 4.320581178829528 -0.20164039694964567 -0.2062605068594454
Ar 2.238163659375386 3.2926102806384185 -0.4968981645670246
Ar 1.976913953946074 1.4099837323135846 2.1369204765746503
4
 Step: 18. Total Energy: -0.5675528802377074 kcal/mol.
Ar -0.1469475871308585 0.15873220025350426 -0.08189154779129866
Ar 4.384384207132951 -0.12420370467975986 -0.19710266510856758
Ar 2.238163659375386 3.2926102806384185 -0.4968981645670246
Ar 1.976913953946074 1.4099837323135846 2.1369204765746503
4
 Step: 19. Total Energy: -1.1181141013459808 kcal/mol.
Ar -0.1469475871308585 0.15873220025350426 -0.08189154779129866
Ar 4.384384207132951 -0.12420370467975986 -0.19710266510856758
Ar 2.238163659375386 3.2926102806384185 -0.4968981645670246
Ar 1.970460753276093 1.3207786302644342 2.1761748280253963
4
 Step: 20. Total Energy: -1.1586419600661015 kcal/mol.
Ar -0.1469475871308585 0.15873220025350426 -0.08189154779129866
Ar 4.454648975483397 0.04063346953339511 -0.3574060988478235
Ar 2.238163659375386 3.2926102806384185 -0.4968981645670246
Ar 1.970460753276093 1.3207786302644342 2.1761748280253963
4
 Step: 23. Total Energy: -1.048925652955111 kcal/mol.
Ar -0.1791945995439424 0.18644306597558605 -0.044616235160274256
Ar 4.454648975483397 0.04063346953339511 -0.3574060988478235
Ar 2.238163659375386 3.2926102806384185 -0.4968981645670246
Ar 1.970460753276093 1.3207786302644342 2.1761748280253963
4
 Step: 24. Total Energy: -1.6597067712547167 kcal/mol.
Ar -0.1791945995439424 0.18644306597558605 -0.044616235160274256
Ar 4.454648975483397 0.04063346953339511 -0.3574060988478235
Ar 2.2511313460668148 3.426316558947284 -0.6370983468619178
Ar 1.970460753276093 1.3207786302644342 2.1761748280253963
4
 Step: 25. Total Energy: -1.7263734851242607 kcal/mol.
Ar -0.1791945995439424 0.18644306597558605 -0.044616235160274256
Ar 4.33614396987953 0.06921995787333574 -0.4951516400051078
Ar 2.2511313460668148 3.426316558947284 -0.6370983468619178
Ar 1.970460753276093 1.3207786302644342 2.1761748280253963
4
 Step: 26. Total Energy: -1.9762043085918475 kcal/mol.
Ar -0.3434380523349982 0.21658115591094854 0.02565324103897569
Ar 4.33614396987953 0.06921995787333574 -0.4951516400051078
Ar 2.2511313460668148 3.426316558947284 -0.6370983468619178
Ar 1.970460753276093 1.3207786302644342 2.1761748280253963
4
 Step: 27. Total Energy: -2.305022340624374 kcal/mol.
Ar -0.3472497623654611 0.10397093892153289 -0.03847679585868104
Ar 4.33614396987953 0.06921995787333574 -0.4951516400051078
Ar 2.2511313460668148 3.426316558947284 -0.6370983468619178
Ar 1.970460753276093 1.3207786302644342 2.1761748280253963
4
 Step: 28. Total Energy: -2.3268758534639016 kcal/mol.
Ar -0.3472497623654611 0.10397093892153289 -0.03847679585868104
Ar 4.237598295395066 -0.021673456036080327 -0.5570634012036071
Ar 2.2511313460668148 3.426316558947284 -0.6370983468619178
Ar 1.970460753276093 1.3207786302644342 2.1761748280253963
4
 Step: 29. Total Energy: -2.3826170296530997 kcal/mol.
Ar -0.3472497623654611 0.10397093892153289 -0.03847679585868104
Ar 4.0664484651505015 0.13426425973818096 -0.6310133975820795
Ar 2.2511313460668148 3.426316558947284 -0.6370983468619178
Ar 1.970460753276093 1.3207786302644342 2.1761748280253963
4
 Step: 31. Total Energy: -2.9425804540757525 kcal/mol.
Ar -0.3472497623654611 0.10397093892153289 -0.03847679585868104
Ar 4.0664484651505015 0.13426425973818096 -0.6310133975820795
Ar 2.2511313460668148 3.426316558947284 -0.6370983468619178
Ar 2.0399687294854427 1.2681544122569517 2.3682078693069752
4
 Step: 32. Total Energy: -3.035491137892737 kcal/mol.
Ar -0.4305470296953854 0.1601187592912812 -0.21355617340173422
Ar 4.0664484651505015 0.13426425973818096 -0.6310133975820795
Ar 2.2511313460668148 3.426316558947284 -0.6370983468619178
Ar 2.0399687294854427 1.2681544122569517 2.3682078693069752
4
 Step: 33. Total Energy: -2.996629963522496 kcal/mol.
Ar -0.4305470296953854 0.1601187592912812 -0.21355617340173422
Ar 4.0664484651505015 0.13426425973818096 -0.6310133975820795
Ar 2.2820339797316525 3.5055133458691303 -0.5383902893741049
Ar 2.0399687294854427 1.2681544122569517 2.3682078693069752
4
 Step: 34. Total Energy: -2.9423904383968407 kcal/mol.
Ar -0.3496008759602625 0.3310184970177812 -0.09668912070312824
Ar 4.0664484651505015 0.13426425973818096 -0.6310133975820795
Ar 2.2820339797316525 3.5055133458691303 -0.5383902893741049
Ar 2.0399687294854427 1.2681544122569517 2.3682078693069752
4
 Step: 35. Total Energy: -2.9131224434919183 kcal/mol.
Ar -0.3496008759602625 0.3310184970177812 -0.09668912070312824
Ar 4.0664484651505015 0.13426425973818096 -0.6310133975820795
Ar 2.399894727880812 3.449984269536486 -0.5797141999029981
Ar 2.0399687294854427 1.2681544122569517 2.3682078693069752
4
 Step: 36. Total Energy: -2.911162054846716 kcal/mol.
Ar -0.3496008759602625 0.3310184970177812 -0.09668912070312824
Ar 4.017238511431729 -0.002110993454130128 -0.44229591318509803
Ar 2.399894727880812 3.449984269536486 -0.5797141999029981
Ar 2.0399687294854427 1.2681544122569517 2.3682078693069752
4
 Step: 37. Total Energy: -2.8249758659571067 kcal/mol.
Ar -0.3496008759602625 0.3310184970177812 -0.09668912070312824
Ar 4.017238511431729 -0.002110993454130128 -0.44229591318509803
Ar 2.5057594314025233 3.6399985393300156 -0.6900267040520968
Ar 2.0399687294854427 1.2681544122569517 2.3682078693069752
4
 Step: 38. Total Energy: -2.731753135154379 kcal/mol.
Ar -0.3496008759602625 0.3310184970177812 -0.09668912070312824
Ar 4.017238511431729 -0.002110993454130128 -0.44229591318509803
Ar 2.5057594314025233 3.6399985393300156 -0.6900267040520968
Ar 2.166947383256827 1.4030691162762763 2.2386072301950084
4
 Step: 39. Total Energy: -2.9455898765420634 kcal/mol.
Ar -0.3496008759602625 0.3310184970177812 -0.09668912070312824
Ar 4.017238511431729 -0.002110993454130128 -0.44229591318509803
Ar 2.5057594314025233 3.6399985393300156 -0.6900267040520968
Ar 2.1991021311032237 1.3235677900949996 2.4167748511348623
4
 Step: 40. Total Energy: -2.9805290271980636 kcal/mol.
Ar -0.3496008759602625 0.3310184970177812 -0.09668912070312824
Ar 4.017238511431729 -0.002110993454130128 -0.44229591318509803
Ar 2.4474833370277786 3.611283145423525 -0.6033887282619175
Ar 2.1991021311032237 1.3235677900949996 2.4167748511348623
4
 Step: 41. Total Energy: -2.96579399531971 kcal/mol.
Ar -0.3496008759602625 0.3310184970177812 -0.09668912070312824
Ar 4.017238511431729 -0.002110993454130128 -0.44229591318509803
Ar 2.421977538837054 3.6084823942138438 -0.7490087876862067
Ar 2.1991021311032237 1.3235677900949996 2.4167748511348623
4
 Step: 42. Total Energy: -3.0003958121660945 kcal/mol.
Ar -0.3496008759602625 0.3310184970177812 -0.09668912070312824
Ar 4.017238511431729 -0.002110993454130128 -0.44229591318509803
Ar 2.421977538837054 3.6084823942138438 -0.7490087876862067
Ar 2.256088773058094 1.4375887826440015 2.4112002905366663
4
 Step: 43. Total Energy: -2.97128954954302 kcal/mol.
Ar -0.340586202363927 0.4471556134514256 0.04309102861873032
Ar 4.017238511431729 -0.002110993454130128 -0.44229591318509803
Ar 2.421977538837054 3.6084823942138438 -0.7490087876862067
Ar 2.256088773058094 1.4375887826440015 2.4112002905366663
4
 Step: 44. Total Energy: -2.541071012576846 kcal/mol.
Ar -0.340586202363927 0.4471556134514256 0.04309102861873032
Ar 4.017238511431729 -0.002110993454130128 -0.44229591318509803
Ar 2.421977538837054 3.6084823942138438 -0.7490087876862067
Ar 2.0563102128577992 1.2872492135533895 2.34308772800777
4
 Step: 45. Total Energy: -2.4321458346063523 kcal/mol.
Ar -0.340586202363927 0.4471556134514256 0.04309102861873032
Ar 4.208943378432267 -0.19900970633997717 -0.43026419239488745
Ar 2.421977538837054 3.6084823942138438 -0.7490087876862067
Ar 2.0563102128577992 1.2872492135533895 2.34308772800777
4
 Step: 46. Total Energy: -2.838585409409383 kcal/mol.
Ar -0.340586202363927 0.4471556134514256 0.04309102861873032
Ar 4.208943378432267 -0.19900970633997717 -0.43026419239488745
Ar 2.421977538837054 3.6084823942138438 -0.7490087876862067
Ar 2.2076058006328454 1.3758932552662586 2.4993131039930514
4
 Step: 47. Total Energy: -2.485057984597648 kcal/mol.
Ar -0.16558373686070044 0.4005903098617608 0.2268071961212933
Ar 4.208943378432267 -0.19900970633997717 -0.43026419239488745
Ar 2.421977538837054 3.6084823942138438 -0.7490087876862067
Ar 2.2076058006328454 1.3758932552662586 2.4993131039930514
4
 Step: 48. Total Energy: -2.555695489295778 kcal/mol.
Ar -0.16558373686070044 0.4005903098617608 0.2268071961212933
Ar 4.208943378432267 -0.19900970633997717 -0.43026419239488745
Ar 2.421977538837054 3.6084823942138438 -0.7490087876862067
Ar 2.0495748116355497 1.529560002589827 2.676356705186873
4
 Step: 49. Total Energy: -2.589625448454863 kcal/mol.
Ar -0.16558373686070044 0.4005903098617608 0.2268071961212933
Ar 4.093419813601788 -0.23073173884266254 -0.5267048341955576
Ar 2.421977538837054 3.6084823942138438 -0.7490087876862067
Ar 2.0495748116355497 1.529560002589827 2.676356705186873
4
 Step: 50. Total Energy: -2.641155089543075 kcal/mol.
Ar -0.06565530214187149 0.2593708480704182 0.1953341590302242
Ar 4.093419813601788 -0.23073173884266254 -0.5267048341955576
Ar 2.421977538837054 3.6084823942138438 -0.7490087876862067
Ar 2.0495748116355497 1.529560002589827 2.676356705186873
4
 Step: 51. Total Energy: -2.4712953810729505 kcal/mol.
Ar 0.07753799890897023 0.4312070306835771 0.13568694317190536
Ar 4.093419813601788 -0.23073173884266254 -0.5267048341955576
Ar 2.421977538837054 3.6084823942138438 -0.7490087876862067
Ar 2.0495748116355497 1.529560002589827 2.676356705186873
4
 Step: 52. Total Energy: -2.5424146866395327 kcal/mol.
Ar 0.07753799890897023 0.4312070306835771 0.13568694317190536
Ar 4.093419813601788 -0.23073173884266254 -0.5267048341955576
Ar 2.493247826309171 3.442681380795959 -0.8758595906853075
Ar 2.0495748116355497 1.529560002589827 2.676356705186873
4
 Step: 53. Total Energy: -2.657743981836476 kcal/mol.
Ar 0.07753799890897023 0.4312070306835771 0.13568694317190536
Ar 4.078229358108746 -0.11353862397681833 -0.3658968869590523
Ar 2.493247826309171 3.442681380795959 -0.8758595906853075
Ar 2.0495748116355497 1.529560002589827 2.676356705186873
4
 Step: 54. Total Energy: -2.81824126079135 kcal/mol.
Ar 0.07753799890897023 0.4312070306835771 0.13568694317190536
Ar 4.078229358108746 -0.11353862397681833 -0.3658968869590523
Ar 2.493247826309171 3.442681380795959 -0.8758595906853075
Ar 2.112165550733388 1.4531009038021505 2.7278102579502557
4
 Step: 55. Total Energy: -2.782867485626901 kcal/mol.
Ar 0.07753799890897023 0.4312070306835771 0.13568694317190536
Ar 3.97736710297708 -0.3100944347387415 -0.38226907104124136
Ar 2.493247826309171 3.442681380795959 -0.8758595906853075
Ar 2.112165550733388 1.4531009038021505 2.7278102579502557
4
 Step: 56. Total Energy: -2.7321532977794636 kcal/mol.
Ar 0.18951188061711222 0.4109705069048115 0.09747676739059444
Ar 3.97736710297708 -0.3100944347387415 -0.38226907104124136
Ar 2.493247826309171 3.442681380795959 -0.8758595906853075
Ar 2.112165550733388 1.4531009038021505 2.7278102579502557
4
 Step: 57. Total Energy: -2.8634180396889315 kcal/mol.
Ar 0.336334278340757 0.503046298709327 -0.08791630277410345
Ar 3.97736710297708 -0.3100944347387415 -0.38226907104124136
Ar 2.493247826309171 3.442681380795959 -0.8758595906853075
Ar 2.112165550733388 1.4531009038021505 2.7278102579502557
4
 Step: 58. Total Energy: -3.1250829757677865 kcal/mol.
Ar 0.336334278340757 0.503046298709327 -0.08791630277410345
Ar 3.97736710297708 -0.3100944347387415 -0.38226907104124136
Ar 2.493247826309171 3.442681380795959 -0.8758595906853075
Ar 2.2623883574331303 1.5000733829611823 2.8334960229956048
4
 Step: 59. Total Energy: -3.092088424441562 kcal/mol.
Ar 0.336334278340757 0.503046298709327 -0.08791630277410345
Ar 3.97736710297708 -0.3100944347387415 -0.38226907104124136
Ar 2.4618342901420753 3.408011081708571 -0.9708294261689384
Ar 2.2623883574331303 1.5000733829611823 2.8334960229956048
4
 Step: 60. Total Energy: -2.8704705138222524 kcal/mol.
Ar 0.41874215352374067 0.6540700834391588 -0.2654416346692044
Ar 3.97736710297708 -0.3100944347387415 -0.38226907104124136
Ar 2.4618342901420753 3.408011081708571 -0.9708294261689384
Ar 2.2623883574331303 1.5000733829611823 2.8334960229956048
4
 Step: 61. Total Energy: -2.780726653121228 kcal/mol.
Ar 0.41874215352374067 0.6540700834391588 -0.2654416346692044
Ar 3.97736710297708 -0.3100944347387415 -0.38226907104124136
Ar 2.432114036979793 3.382678062390108 -0.9348866242007868
Ar 2.2623883574331303 1.5000733829611823 2.8334960229956048
4
 Step: 62. Total Energy: -2.733599020623433 kcal/mol.
Ar 0.41874215352374067 0.6540700834391588 -0.2654416346692044
Ar 3.930721628518882 -0.36420246279864554 -0.45030083197527526
Ar 2.432114036979793 3.382678062390108 -0.9348866242007868
Ar 2.2623883574331303 1.5000733829611823 2.8334960229956048
4
 Step: 64. Total Energy: -2.7316577808037517 kcal/mol.
Ar 0.41874215352374067 0.6540700834391588 -0.2654416346692044
Ar 4.008061503248189 -0.42646306472700246 -0.38870256201832765
Ar 2.432114036979793 3.382678062390108 -0.9348866242007868
Ar 2.2623883574331303 1.5000733829611823 2.8334960229956048
4
 Step: 65. Total Energy: -2.7378250262463273 kcal/mol.
Ar 0.41874215352374067 0.6540700834391588 -0.2654416346692044
Ar 4.008061503248189 -0.42646306472700246 -0.38870256201832765
Ar 2.487784342162548 3.3184526762563116 -1.0181962889652443
Ar 2.2623883574331303 1.5000733829611823 2.8334960229956048
4
 Step: 66. Total Energy: -2.8046454889424743 kcal/mol.
Ar 0.41874215352374067 0.6540700834391588 -0.2654416346692044
Ar 4.174911421276396 -0.2318780222723345 -0.30682107127017955
Ar 2.487784342162548 3.3184526762563116 -1.0181962889652443
Ar 2.2623883574331303 1.5000733829611823 2.8334960229956048
4
 Step: 67. Total Energy: -2.8276777361596057 kcal/mol.
Ar 0.41874215352374067 0.6540700834391588 -0.2654416346692044
Ar 4.294210587521236 -0.04871823765557293 -0.2851794734034042
Ar 2.487784342162548 3.3184526762563116 -1.0181962889652443
Ar 2.2623883574331303 1.5000733829611823 2.8334960229956048
4
 Step: 68. Total Energy: -2.911789554106549 kcal/mol.
Ar 0.41874215352374067 0.6540700834391588 -0.2654416346692044
Ar 4.294210587521236 -0.04871823765557293 -0.2851794734034042
Ar 2.4715133399671663 3.3863070959292934 -1.015172597232181
Ar 2.2623883574331303 1.5000733829611823 2.8334960229956048
4
 Step: 69. Total Energy: -2.4230575733122928 kcal/mol.
Ar 0.5526940893040087 0.71485748472566 -0.3444180756981815
Ar 4.294210587521236 -0.04871823765557293 -0.2851794734034042
Ar 2.4715133399671663 3.3863070959292934 -1.015172597232181
Ar 2.2623883574331303 1.5000733829611823 2.8334960229956048
4
 Step: 70. Total Energy: -2.8209548194635206 kcal/mol.
Ar 0.4009188966911494 0.7114085880132826 -0.2445518184881842
Ar 4.294210587521236 -0.04871823765557293 -0.2851794734034042
Ar 2.4715133399671663 3.3863070959292934 -1.015172597232181
Ar 2.2623883574331303 1.5000733829611823 2.8334960229956048
4
 Step: 71. Total Energy: -2.921980999526066 kcal/mol.
Ar 0.4009188966911494 0.7114085880132826 -0.2445518184881842
Ar 4.294210587521236 -0.04871823765557293 -0.2851794734034042
Ar 2.5787852911922786 3.3469743349284298 -0.9440643386524092
Ar 2.2623883574331303 1.5000733829611823 2.8334960229956048
4
 Step: 72. Total Energy: -2.799460677575763 kcal/mol.
Ar 0.3013171485570781 0.835926507229928 -0.08164948566385949
Ar 4.294210587521236 -0.04871823765557293 -0.2851794734034042
Ar 2.5787852911922786 3.3469743349284298 -0.9440643386524092
Ar 2.2623883574331303 1.5000733829611823 2.8334960229956048
4
 Step: 73. Total Energy: -2.7661490617249274 kcal/mol.
Ar 0.3013171485570781 0.835926507229928 -0.08164948566385949
Ar 4.322179933816421 0.07415907158044815 -0.40908228127385515
Ar 2.5787852911922786 3.3469743349284298 -0.9440643386524092
Ar 2.2623883574331303 1.5000733829611823 2.8334960229956048
4
 Step: 74. Total Energy: -2.7871448478499206 kcal/mol.
Ar 0.3013171485570781 0.835926507229928 -0.08164948566385949
Ar 4.14363674945015 -0.07375682554395097 -0.5444216324365507
Ar 2.5787852911922786 3.3469743349284298 -0.9440643386524092
Ar 2.2623883574331303 1.5000733829611823 2.8334960229956048
4
 Step: 75. Total Energy: -2.800767485931003 kcal/mol.
Ar 0.3013171485570781 0.835926507229928 -0.08164948566385949
Ar 3.9926085423537456 -0.1759506285776775 -0.612732325161701
Ar 2.5787852911922786 3.3469743349284298 -0.9440643386524092
Ar 2.2623883574331303 1.5000733829611823 2.8334960229956048
4
 Step: 76. Total Energy: -2.747041674560759 kcal/mol.
Ar 0.3013171485570781 0.835926507229928 -0.08164948566385949
Ar 4.0431408051583295 -0.35198751914414167 -0.5006952634771218
Ar 2.5787852911922786 3.3469743349284298 -0.9440643386524092
Ar 2.2623883574331303 1.5000733829611823 2.8334960229956048
4
 Step: 77. Total Energy: -2.771330815785209 kcal/mol.
Ar 0.3013171485570781 0.835926507229928 -0.08164948566385949
Ar 4.089990610004171 -0.18666990288788177 -0.5826114360393779
Ar 2.5787852911922786 3.3469743349284298 -0.9440643386524092
Ar 2.2623883574331303 1.5000733829611823 2.8334960229956048
4
 Step: 78. Total Energy: -2.740553243545059 kcal/mol.
Ar 0.3013171485570781 0.835926507229928 -0.08164948566385949
Ar 3.9249278246054558 -0.0356995816705169 -0.7264174371960477
Ar 2.5787852911922786 3.3469743349284298 -0.9440643386524092
Ar 2.2623883574331303 1.5000733829611823 2.8334960229956048
4
 Step: 80. Total Energy: -3.021523534154946 kcal/mol.
Ar 0.17532305540878007 0.7823015585541163 -0.2170081117776878
Ar 3.9249278246054558 -0.0356995816705169 -0.7264174371960477
Ar 2.5787852911922786 3.3469743349284298 -0.9440643386524092
Ar 2.2623883574331303 1.5000733829611823 2.8334960229956048
4
 Step: 81. Total Energy: -3.059336054157012 kcal/mol.
Ar 0.06657758499978138 0.7195924131279513 -0.39392711076604414
Ar 3.9249278246054558 -0.0356995816705169 -0.7264174371960477
Ar 2.5787852911922786 3.3469743349284298 -0.9440643386524092
Ar 2.2623883574331303 1.5000733829611823 2.8334960229956048
4
 Step: 82. Total Energy: -3.0196316166557184 kcal/mol.
Ar 0.06657758499978138 0.7195924131279513 -0.39392711076604414
Ar 3.943930637365354 -0.04317973342406997 -0.8275518561658368
Ar 2.5787852911922786 3.3469743349284298 -0.9440643386524092
Ar 2.2623883574331303 1.5000733829611823 2.8334960229956048
4
 Step: 83. Total Energy: -2.9866539908170795 kcal/mol.
Ar 0.06657758499978138 0.7195924131279513 -0.39392711076604414
Ar 3.943930637365354 -0.04317973342406997 -0.8275518561658368
Ar 2.7560949823472916 3.5415986989761277 -1.096859232873547
Ar 2.2623883574331303 1.5000733829611823 2.8334960229956048
4
 Step: 84. Total Energy: -3.0502105116603984 kcal/mol.
Ar 0.06657758499978138 0.7195924131279513 -0.39392711076604414
Ar 3.943930637365354 -0.04317973342406997 -0.8275518561658368
Ar 2.7560949823472916 3.5415986989761277 -1.096859232873547
Ar 2.2767658732622813 1.4113461965653151 2.763381840780427
4
 Step: 85. Total Energy: -3.0415109965342277 kcal/mol.
Ar 0.06657758499978138 0.7195924131279513 -0.39392711076604414
Ar 3.943930637365354 -0.04317973342406997 -0.8275518561658368
Ar 2.6067861644075188 3.659993195119842 -1.038570643473303
Ar 2.2767658732622813 1.4113461965653151 2.763381840780427
4
 Step: 86. Total Energy: -2.9149891628758806 kcal/mol.
Ar 0.06657758499978138 0.7195924131279513 -0.39392711076604414
Ar 4.083931648717966 0.02985129109464804 -1.0262269998092122
Ar 2.6067861644075188 3.659993195119842 -1.038570643473303
Ar 2.2767658732622813 1.4113461965653151 2.763381840780427
4
 Step: 87. Total Energy: -2.8908013966895956 kcal/mol.
Ar 0.06657758499978138 0.7195924131279513 -0.39392711076604414
Ar 4.083931648717966 0.02985129109464804 -1.0262269998092122
Ar 2.6067861644075188 3.659993195119842 -1.038570643473303
Ar 2.4546247147001496 1.5639770600614646 2.7898339084997836
4
 Step: 88. Total Energy: -2.7421848045496344 kcal/mol.
Ar 0.06657758499978138 0.7195924131279513 -0.39392711076604414
Ar 4.083931648717966 0.02985129109464804 -1.0262269998092122
Ar 2.753105492739718 3.7842230283421374 -1.1499265057666594
Ar 2.4546247147001496 1.5639770600614646 2.7898339084997836
4
 Step: 89. Total Energy: -2.623393069948708 kcal/mol.
Ar 0.06657758499978138 0.7195924131279513 -0.39392711076604414
Ar 4.083931648717966 0.02985129109464804 -1.0262269998092122
Ar 2.753105492739718 3.7842230283421374 -1.1499265057666594
Ar 2.304376424251846 1.5573527189247727 2.9329299249941956
4
 Step: 90. Total Energy: -2.7095610727047275 kcal/mol.
Ar 0.06657758499978138 0.7195924131279513 -0.39392711076604414
Ar 4.083931648717966 0.02985129109464804 -1.0262269998092122
Ar 2.753105492739718 3.7842230283421374 -1.1499265057666594
Ar 2.2815256566945097 1.5878465182805859 2.831880397291024
4
 Step: 93. Total Energy: -2.7526510872050878 kcal/mol.
Ar 0.06657758499978138 0.7195924131279513 -0.39392711076604414
Ar 3.9450498468041597 0.1374143976681764 -1.2254867170177035
Ar 2.753105492739718 3.7842230283421374 -1.1499265057666594
Ar 2.2815256566945097 1.5878465182805859 2.831880397291024
4
 Step: 94. Total Energy: -2.7673343266082133 kcal/mol.
Ar 0.0848485333369519 0.7079234032271073 -0.3446407768283238
Ar 3.9450498468041597 0.1374143976681764 -1.2254867170177035
Ar 2.753105492739718 3.7842230283421374 -1.1499265057666594
Ar 2.2815256566945097 1.5878465182805859 2.831880397291024
4
 Step: 95. Total Energy: -2.612911903132287 kcal/mol.
Ar 0.0848485333369519 0.7079234032271073 -0.3446407768283238
Ar 3.9450498468041597 0.1374143976681764 -1.2254867170177035
Ar 2.753105492739718 3.7842230283421374 -1.1499265057666594
Ar 2.4258531689857668 1.5322779077213755 3.007079384907549
4
 Step: 96. Total Energy: -2.714966229917661 kcal/mol.
Ar 0.0848485333369519 0.7079234032271073 -0.3446407768283238
Ar 3.9450498468041597 0.1374143976681764 -1.2254867170177035
Ar 2.753105492739718 3.7842230283421374 -1.1499265057666594
Ar 2.383993780485252 1.5291049097504987 2.891186656088092
4
 Step: 97. Total Energy: -2.8082382611529155 kcal/mol.
Ar 0.0848485333369519 0.7079234032271073 -0.3446407768283238
Ar 3.9450498468041597 0.1374143976681764 -1.2254867170177035
Ar 2.7605406999494804 3.5905838905733543 -0.9899054186992241
Ar 2.383993780485252 1.5291049097504987 2.891186656088092
4
 Step: 98. Total Energy: -2.8605989617237197 kcal/mol.
Ar 0.0848485333369519 0.7079234032271073 -0.3446407768283238
Ar 3.9450498468041597 0.1374143976681764 -1.2254867170177035
Ar 2.7605406999494804 3.5905838905733543 -0.9899054186992241
Ar 2.4500872670439673 1.3610894458306735 2.825362982522696
4
 Step: 99. Total Energy: -2.8076013624212783 kcal/mol.
Ar 0.0848485333369519 0.7079234032271073 -0.3446407768283238
Ar 3.9450498468041597 0.1374143976681764 -1.2254867170177035
Ar 2.7605406999494804 3.5905838905733543 -0.9899054186992241
Ar 2.46176839587695 1.5572889174721432 2.88560282340888
4
 Step: 100. Total Energy: -2.905463559992663 kcal/mol.
Ar 0.26451257134093087 0.643791027306277 -0.27599266100326786
Ar 3.9450498468041597 0.1374143976681764 -1.2254867170177035
Ar 2.7605406999494804 3.5905838905733543 -0.9899054186992241
Ar 2.46176839587695 1.5572889174721432 2.88560282340888
4
 Step: 101. Total Energy: -2.783003439189251 kcal/mol.
Ar 0.26451257134093087 0.643791027306277 -0.27599266100326786
Ar 3.9450498468041597 0.1374143976681764 -1.2254867170177035
Ar 2.7605406999494804 3.5905838905733543 -0.9899054186992241
Ar 2.3466402782582083 1.7220663773535927 3.0323234746189316
4
 Step: 102. Total Energy: -2.70392393590355 kcal/mol.
Ar 0.07905840758527094 0.7587926266923398 -0.2730888013541357
Ar 3.9450498468041597 0.1374143976681764 -1.2254867170177035
Ar 2.7605406999494804 3.5905838905733543 -0.9899054186992241
Ar 2.3466402782582083 1.7220663773535927 3.0323234746189316
4
 Step: 103. Total Energy: -2.7367372021511684 kcal/mol.
Ar 0.07905840758527094 0.7587926266923398 -0.2730888013541357
Ar 3.7955198767641884 0.06698921256924367 -1.3220470163552214
Ar 2.7605406999494804 3.5905838905733543 -0.9899054186992241
Ar 2.3466402782582083 1.7220663773535927 3.0323234746189316
4
 Step: 104. Total Energy: -2.6695721827330474 kcal/mol.
Ar 0.07905840758527094 0.7587926266923398 -0.2730888013541357
Ar 3.7955198767641884 0.06698921256924367 -1.3220470163552214
Ar 2.7043263032729112 3.7109036275596545 -1.1656679055560661
Ar 2.3466402782582083 1.7220663773535927 3.0323234746189316
4
 Step: 105. Total Energy: -2.6018588812568173 kcal/mol.
Ar 0.07905840758527094 0.7587926266923398 -0.2730888013541357
Ar 3.7955198767641884 0.06698921256924367 -1.3220470163552214
Ar 2.7043263032729112 3.7109036275596545 -1.1656679055560661
Ar 2.2692510485682087 1.5391541017038888 3.1374465188804725
4
 Step: 106. Total Energy: -2.6306531951868837 kcal/mol.
Ar 0.22743075047811262 0.5851243602603284 -0.19748812237002422
Ar 3.7955198767641884 0.06698921256924367 -1.3220470163552214
Ar 2.7043263032729112 3.7109036275596545 -1.1656679055560661
Ar 2.2692510485682087 1.5391541017038888 3.1374465188804725
4
 Step: 107. Total Energy: -2.695330522285504 kcal/mol.
Ar 0.22743075047811262 0.5851243602603284 -0.19748812237002422
Ar 3.7955198767641884 0.06698921256924367 -1.3220470163552214
Ar 2.662040134497346 3.620847429088801 -1.075671417478903
Ar 2.2692510485682087 1.5391541017038888 3.1374465188804725
4
 Step: 108. Total Energy: -2.7573475152982754 kcal/mol.
Ar 0.22743075047811262 0.5851243602603284 -0.19748812237002422
Ar 3.7955198767641884 0.06698921256924367 -1.3220470163552214
Ar 2.6749729037050876 3.547326529170807 -0.8906793600276973
Ar 2.2692510485682087 1.5391541017038888 3.1374465188804725
4
 Step: 109. Total Energy: -2.822928856067426 kcal/mol.
Ar 0.22743075047811262 0.5851243602603284 -0.19748812237002422
Ar 3.7955198767641884 0.06698921256924367 -1.3220470163552214
Ar 2.6749729037050876 3.547326529170807 -0.8906793600276973
Ar 2.1930795695006196 1.4517802209540749 3.0499436530883313
4
 Step: 110. Total Energy: -2.771716772260694 kcal/mol.
Ar 0.22743075047811262 0.5851243602603284 -0.19748812237002422
Ar 3.599878708830051 -0.0958218750474771 -1.2361006093393845
Ar 2.6749729037050876 3.547326529170807 -0.8906793600276973
Ar 2.1930795695006196 1.4517802209540749 3.0499436530883313
4
 Step: 111. Total Energy: -2.8577089852244084 kcal/mol.
Ar 0.22743075047811262 0.5851243602603284 -0.19748812237002422
Ar 3.599878708830051 -0.0958218750474771 -1.2361006093393845
Ar 2.6749729037050876 3.547326529170807 -0.8906793600276973
Ar 2.2148895840786738 1.593710206125731 2.937632432343591
4
 Step: 112. Total Energy: -2.897549591955945 kcal/mol.
Ar 0.22743075047811262 0.5851243602603284 -0.19748812237002422
Ar 3.599878708830051 -0.0958218750474771 -1.2361006093393845
Ar 2.6749729037050876 3.547326529170807 -0.8906793600276973
Ar 2.1652353812600365 1.7865900608762166 2.8838527385295083
4
 Step: 113. Total Energy: -2.859321534628935 kcal/mol.
Ar 0.22743075047811262 0.5851243602603284 -0.19748812237002422
Ar 3.6692640951760045 0.09071507497872441 -1.1770710985410915
Ar 2.6749729037050876 3.547326529170807 -0.8906793600276973
Ar 2.1652353812600365 1.7865900608762166 2.8838527385295083
4
 Step: 114. Total Energy: -2.8644217360664403 kcal/mol.
Ar 0.22743075047811262 0.5851243602603284 -0.19748812237002422
Ar 3.6518315654905042 0.07148710940918515 -1.2360438193379846
Ar 2.6749729037050876 3.547326529170807 -0.8906793600276973
Ar 2.1652353812600365 1.7865900608762166 2.8838527385295083
4
 Step: 115. Total Energy: -2.913502362138923 kcal/mol.
Ar 0.07009403175784285 0.7680221955674772 -0.3762580099263062
Ar 3.6518315654905042 0.07148710940918515 -1.2360438193379846
Ar 2.6749729037050876 3.547326529170807 -0.8906793600276973