4
	Step: 1. Total Energy: 7.702912930301158 kcal/mol.
Ar 0.0 0.0 0.0
Ar 4.0 0.0 0.0
Ar 1.9743168055349527 3.6553110076201536 0.18021212039811002
Ar 2.0 1.53 2.03
4
	Step: 2. Total Energy: 8.296931157725457 kcal/mol.
Ar 0.0 0.0 0.0
Ar 3.885511496547484 -0.18746549275738117 0.19765463074143835
Ar 1.9743168055349527 3.6553110076201536 0.18021212039811002
Ar 2.0 1.53 2.03
4
	Step: 5. Total Energy: 3.045074457299531 kcal/mol.
Ar 0.0 0.0 0.0
Ar 3.885511496547484 -0.18746549275738117 0.19765463074143835
Ar 1.9743168055349527 3.6553110076201536 0.18021212039811002
Ar 1.8218545500366177 1.414530368972742 2.1829277381611982
4
	Step: 6. Total Energy: 3.169241530351912 kcal/mol.
Ar 0.0 0.0 0.0
Ar 3.885511496547484 -0.18746549275738117 0.19765463074143835
Ar 1.9743168055349527 3.6553110076201536 0.18021212039811002
Ar 1.8522732008583287 1.313689623762556 2.1474659533158262
4
	Step: 7. Total Energy: 3.466192940888917 kcal/mol.
Ar 0.0 0.0 0.0
Ar 3.782942584484483 -0.033470992438576985 0.06525062629318751
Ar 1.9743168055349527 3.6553110076201536 0.18021212039811002
Ar 1.8522732008583287 1.313689623762556 2.1474659533158262
4
	Step: 8. Total Energy: 2.7320082679770774 kcal/mol.
Ar 0.02480338945006677 0.007367200136347535 -0.1874446205591315
Ar 3.782942584484483 -0.033470992438576985 0.06525062629318751
Ar 1.9743168055349527 3.6553110076201536 0.18021212039811002
Ar 1.8522732008583287 1.313689623762556 2.1474659533158262
4
	Step: 9. Total Energy: 2.5415930434287968 kcal/mol.
Ar 0.02480338945006677 0.007367200136347535 -0.1874446205591315
Ar 3.656728449002351 -0.08701758897077747 -0.056013461204319506
Ar 1.9743168055349527 3.6553110076201536 0.18021212039811002
Ar 1.8522732008583287 1.313689623762556 2.1474659533158262
4
	Step: 11. Total Energy: 1.9199726705034896 kcal/mol.
Ar -0.14676008670774215 0.05597594920617485 -0.3685570737119953
Ar 3.656728449002351 -0.08701758897077747 -0.056013461204319506
Ar 1.9743168055349527 3.6553110076201536 0.18021212039811002
Ar 1.8522732008583287 1.313689623762556 2.1474659533158262
4
	Step: 12. Total Energy: 1.8168411724206175 kcal/mol.
Ar -0.3032673271555813 0.08377933194868006 -0.42505747563996377
Ar 3.656728449002351 -0.08701758897077747 -0.056013461204319506
Ar 1.9743168055349527 3.6553110076201536 0.18021212039811002
Ar 1.8522732008583287 1.313689623762556 2.1474659533158262
4
	Step: 14. Total Energy: 1.960257026537787 kcal/mol.
Ar -0.11362579823209729 -0.0858003649418381 -0.30177961294261674
Ar 3.656728449002351 -0.08701758897077747 -0.056013461204319506
Ar 1.9743168055349527 3.6553110076201536 0.18021212039811002
Ar 1.8522732008583287 1.313689623762556 2.1474659533158262
4
	Step: 15. Total Energy: 1.9138483378566458 kcal/mol.
Ar -0.21008813523004755 -0.22515159666952714 -0.21715722066322202
Ar 3.656728449002351 -0.08701758897077747 -0.056013461204319506
Ar 1.9743168055349527 3.6553110076201536 0.18021212039811002
Ar 1.8522732008583287 1.313689623762556 2.1474659533158262
4
	Step: 16. Total Energy: 1.702246937058586 kcal/mol.
Ar -0.21008813523004755 -0.22515159666952714 -0.21715722066322202
Ar 3.7434448315882527 -0.17810071302114366 0.01857235300143721
Ar 1.9743168055349527 3.6553110076201536 0.18021212039811002
Ar 1.8522732008583287 1.313689623762556 2.1474659533158262
4
	Step: 18. Total Energy: 2.521878535930539 kcal/mol.
Ar -0.21008813523004755 -0.22515159666952714 -0.21715722066322202
Ar 3.7151352246320024 -0.18107205173412744 0.16956425474477693
Ar 1.9743168055349527 3.6553110076201536 0.18021212039811002
Ar 1.8522732008583287 1.313689623762556 2.1474659533158262
4
	Step: 20. Total Energy: 3.089676557728345 kcal/mol.
Ar -0.21008813523004755 -0.22515159666952714 -0.21715722066322202
Ar 3.7151352246320024 -0.18107205173412744 0.16956425474477693
Ar 1.9000482877063263 3.558699360654975 0.13613528114342405
Ar 1.8522732008583287 1.313689623762556 2.1474659533158262
4
	Step: 21. Total Energy: 3.0139622098796237 kcal/mol.
Ar -0.21518299985985395 -0.18943015395926213 -0.3582376876525525
Ar 3.7151352246320024 -0.18107205173412744 0.16956425474477693
Ar 1.9000482877063263 3.558699360654975 0.13613528114342405
Ar 1.8522732008583287 1.313689623762556 2.1474659533158262
4
	Step: 22. Total Energy: 3.1269499236857543 kcal/mol.
Ar -0.21518299985985395 -0.18943015395926213 -0.3582376876525525
Ar 3.886064332988796 -0.17766947001764197 0.35399780999178354
Ar 1.9000482877063263 3.558699360654975 0.13613528114342405
Ar 1.8522732008583287 1.313689623762556 2.1474659533158262
4
	Step: 23. Total Energy: 2.8123023930180713 kcal/mol.
Ar -0.21518299985985395 -0.18943015395926213 -0.3582376876525525
Ar 3.886064332988796 -0.17766947001764197 0.35399780999178354
Ar 2.067331354065835 3.5144933733803185 0.06679625889440441
Ar 1.8522732008583287 1.313689623762556 2.1474659533158262
4
	Step: 24. Total Energy: 3.208967181713922 kcal/mol.
Ar -0.21518299985985395 -0.18943015395926213 -0.3582376876525525
Ar 3.886064332988796 -0.17766947001764197 0.35399780999178354
Ar 2.067331354065835 3.5144933733803185 0.06679625889440441
Ar 1.9566471957168612 1.1622210504222963 2.1766932145801885
4
	Step: 25. Total Energy: 3.181013893984329 kcal/mol.
Ar -0.1976445876826237 -0.04342934512120564 -0.4565665929842297
Ar 3.886064332988796 -0.17766947001764197 0.35399780999178354
Ar 2.067331354065835 3.5144933733803185 0.06679625889440441
Ar 1.9566471957168612 1.1622210504222963 2.1766932145801885
4
	Step: 27. Total Energy: 3.28484957765521 kcal/mol.
Ar -0.12963035420302935 0.11974583733235775 -0.3642393404537977
Ar 3.886064332988796 -0.17766947001764197 0.35399780999178354
Ar 2.067331354065835 3.5144933733803185 0.06679625889440441
Ar 1.9566471957168612 1.1622210504222963 2.1766932145801885
4
	Step: 29. Total Energy: 3.385298459226329 kcal/mol.
Ar -0.2725056256601799 0.18941752699057093 -0.20741542778332817
Ar 3.886064332988796 -0.17766947001764197 0.35399780999178354
Ar 2.067331354065835 3.5144933733803185 0.06679625889440441
Ar 1.9566471957168612 1.1622210504222963 2.1766932145801885
4
	Step: 30. Total Energy: 1.9981789697905357 kcal/mol.
Ar -0.2725056256601799 0.18941752699057093 -0.20741542778332817
Ar 3.8899889859672 -0.3350879135870011 0.3144713052689652
Ar 2.067331354065835 3.5144933733803185 0.06679625889440441
Ar 1.9566471957168612 1.1622210504222963 2.1766932145801885
4
	Step: 31. Total Energy: 1.9899236737411607 kcal/mol.
Ar -0.2515273443100605 0.35733770833824086 -0.2800958169728177
Ar 3.8899889859672 -0.3350879135870011 0.3144713052689652
Ar 2.067331354065835 3.5144933733803185 0.06679625889440441
Ar 1.9566471957168612 1.1622210504222963 2.1766932145801885
4
	Step: 32. Total Energy: 0.17685773918617687 kcal/mol.
Ar -0.2515273443100605 0.35733770833824086 -0.2800958169728177
Ar 3.8899889859672 -0.3350879135870011 0.3144713052689652
Ar 2.067331354065835 3.5144933733803185 0.06679625889440441
Ar 1.8295637527952027 1.1860687614941476 2.315760273816315
4
	Step: 33. Total Energy: -0.28068284784599723 kcal/mol.
Ar -0.2515273443100605 0.35733770833824086 -0.2800958169728177
Ar 3.8899889859672 -0.3350879135870011 0.3144713052689652
Ar 1.886611950403603 3.6172639204346577 -0.06385280982784328
Ar 1.8295637527952027 1.1860687614941476 2.315760273816315
4
	Step: 34. Total Energy: -0.33615365129659125 kcal/mol.
Ar -0.2515273443100605 0.35733770833824086 -0.2800958169728177
Ar 3.8899889859672 -0.3350879135870011 0.3144713052689652
Ar 1.890553826147284 3.7497060102800175 -0.0005981802352327537
Ar 1.8295637527952027 1.1860687614941476 2.315760273816315
4
	Step: 35. Total Energy: -0.12917222045916088 kcal/mol.
Ar -0.3002236330110267 0.37932191634311063 -0.12568970434867965
Ar 3.8899889859672 -0.3350879135870011 0.3144713052689652
Ar 1.890553826147284 3.7497060102800175 -0.0005981802352327537
Ar 1.8295637527952027 1.1860687614941476 2.315760273816315
4
	Step: 36. Total Energy: 1.0291335325480038 kcal/mol.
Ar -0.3002236330110267 0.37932191634311063 -0.12568970434867965
Ar 3.8899889859672 -0.3350879135870011 0.3144713052689652
Ar 1.890553826147284 3.7497060102800175 -0.0005981802352327537
Ar 1.7682040613358783 1.3663126647674086 2.1369783204741095
4
	Step: 39. Total Energy: 0.7977509704060639 kcal/mol.
Ar -0.40387101440514783 0.5391460126223817 -0.1700072900666837
Ar 3.8899889859672 -0.3350879135870011 0.3144713052689652
Ar 1.890553826147284 3.7497060102800175 -0.0005981802352327537
Ar 1.7682040613358783 1.3663126647674086 2.1369783204741095
4
	Step: 41. Total Energy: 0.3439200182665757 kcal/mol.
Ar -0.40387101440514783 0.5391460126223817 -0.1700072900666837
Ar 3.8899889859672 -0.3350879135870011 0.3144713052689652
Ar 1.869990373995174 3.7157580842905595 -0.18505518403111956
Ar 1.7682040613358783 1.3663126647674086 2.1369783204741095
4
	Step: 42. Total Energy: 0.07693306806568612 kcal/mol.
Ar -0.40387101440514783 0.5391460126223817 -0.1700072900666837
Ar 3.994788314528631 -0.23012504237306425 0.1950016821439663
Ar 1.869990373995174 3.7157580842905595 -0.18505518403111956
Ar 1.7682040613358783 1.3663126647674086 2.1369783204741095
4
	Step: 43. Total Energy: -0.04157514577184096 kcal/mol.
Ar -0.4588903803119335 0.4147083010608553 -0.12656482427278107
Ar 3.994788314528631 -0.23012504237306425 0.1950016821439663
Ar 1.869990373995174 3.7157580842905595 -0.18505518403111956
Ar 1.7682040613358783 1.3663126647674086 2.1369783204741095
4
	Step: 44. Total Energy: -0.19858496770746176 kcal/mol.
Ar -0.3962783444590425 0.21684216860983355 -0.18483181274013177
Ar 3.994788314528631 -0.23012504237306425 0.1950016821439663
Ar 1.869990373995174 3.7157580842905595 -0.18505518403111956
Ar 1.7682040613358783 1.3663126647674086 2.1369783204741095
4
	Step: 48. Total Energy: -0.3092413477147358 kcal/mol.
Ar -0.5180529262512021 0.027488095301682308 -0.10997602337522755
Ar 3.994788314528631 -0.23012504237306425 0.1950016821439663
Ar 1.869990373995174 3.7157580842905595 -0.18505518403111956
Ar 1.7682040613358783 1.3663126647674086 2.1369783204741095
4
	Step: 49. Total Energy: -0.340892292071584 kcal/mol.
Ar -0.5180529262512021 0.027488095301682308 -0.10997602337522755
Ar 3.994788314528631 -0.23012504237306425 0.1950016821439663
Ar 1.869990373995174 3.7157580842905595 -0.18505518403111956
Ar 1.8338169670908187 1.3258487786520068 2.158231972944902
4
	Step: 50. Total Energy: -0.5622348907422292 kcal/mol.
Ar -0.5180529262512021 0.027488095301682308 -0.10997602337522755
Ar 3.994788314528631 -0.23012504237306425 0.1950016821439663
Ar 1.9175622823974081 3.8591398191326474 -0.24266381261057057
Ar 1.8338169670908187 1.3258487786520068 2.158231972944902
4
	Step: 51. Total Energy: -0.9434900719707286 kcal/mol.
Ar -0.5180529262512021 0.027488095301682308 -0.10997602337522755
Ar 3.994788314528631 -0.23012504237306425 0.1950016821439663
Ar 1.9175622823974081 3.8591398191326474 -0.24266381261057057
Ar 1.647827734788355 1.3286991961400505 2.2529475845405837
4
	Step: 52. Total Energy: -0.8930938933181993 kcal/mol.
Ar -0.5180529262512021 0.027488095301682308 -0.10997602337522755
Ar 3.9299982486143152 -0.35187940525756345 0.27697017075134783
Ar 1.9175622823974081 3.8591398191326474 -0.24266381261057057
Ar 1.647827734788355 1.3286991961400505 2.2529475845405837
4
	Step: 54. Total Energy: -0.9152706173006406 kcal/mol.
Ar -0.5180529262512021 0.027488095301682308 -0.10997602337522755
Ar 3.9299982486143152 -0.35187940525756345 0.27697017075134783
Ar 1.9175622823974081 3.8591398191326474 -0.24266381261057057
Ar 1.8028747499184838 1.4728582798874872 2.2700459802079713
4
	Step: 55. Total Energy: -0.8010033903971601 kcal/mol.
Ar -0.5180529262512021 0.027488095301682308 -0.10997602337522755
Ar 4.093749604215552 -0.21051569069900983 0.42302907574200954
Ar 1.9175622823974081 3.8591398191326474 -0.24266381261057057
Ar 1.8028747499184838 1.4728582798874872 2.2700459802079713
4
	Step: 56. Total Energy: -0.722480172276161 kcal/mol.
Ar -0.5180529262512021 0.027488095301682308 -0.10997602337522755
Ar 4.093749604215552 -0.21051569069900983 0.42302907574200954
Ar 2.059472370508471 3.901530744245866 -0.13020395544719915
Ar 1.8028747499184838 1.4728582798874872 2.2700459802079713
4
	Step: 57. Total Energy: -0.9382280123814196 kcal/mol.
Ar -0.5180529262512021 0.027488095301682308 -0.10997602337522755
Ar 4.152611674530317 -0.40557684527898763 0.30364375026188284
Ar 2.059472370508471 3.901530744245866 -0.13020395544719915
Ar 1.8028747499184838 1.4728582798874872 2.2700459802079713
4
	Step: 58. Total Energy: -0.9584582664736349 kcal/mol.
Ar -0.44749071849485345 -0.07460387259589193 -0.17701099957593666
Ar 4.152611674530317 -0.40557684527898763 0.30364375026188284
Ar 2.059472370508471 3.901530744245866 -0.13020395544719915
Ar 1.8028747499184838 1.4728582798874872 2.2700459802079713
4
	Step: 61. Total Energy: -0.9476901924629687 kcal/mol.
Ar -0.49239870976632677 -0.2336727746459775 -0.32094303574242944
Ar 4.152611674530317 -0.40557684527898763 0.30364375026188284
Ar 2.059472370508471 3.901530744245866 -0.13020395544719915
Ar 1.8028747499184838 1.4728582798874872 2.2700459802079713
4
	Step: 62. Total Energy: -0.9597903481778728 kcal/mol.
Ar -0.47398813585510235 -0.17382704549305292 -0.2691455896277256
Ar 4.152611674530317 -0.40557684527898763 0.30364375026188284
Ar 2.059472370508471 3.901530744245866 -0.13020395544719915
Ar 1.8028747499184838 1.4728582798874872 2.2700459802079713
4
	Step: 63. Total Energy: -0.9151073627843346 kcal/mol.
Ar -0.6002050333306936 -0.3507129355575383 -0.18416719932139586
Ar 4.152611674530317 -0.40557684527898763 0.30364375026188284
Ar 2.059472370508471 3.901530744245866 -0.13020395544719915
Ar 1.8028747499184838 1.4728582798874872 2.2700459802079713
4
	Step: 65. Total Energy: -0.925052095049309 kcal/mol.
Ar -0.4807146949215671 -0.5098752632054784 -0.17208070301689649
Ar 4.152611674530317 -0.40557684527898763 0.30364375026188284
Ar 2.059472370508471 3.901530744245866 -0.13020395544719915
Ar 1.8028747499184838 1.4728582798874872 2.2700459802079713
4
	Step: 66. Total Energy: -0.8710227494491207 kcal/mol.
Ar -0.4807146949215671 -0.5098752632054784 -0.17208070301689649
Ar 4.016383275704297 -0.36487438328089683 0.29369369271347867
Ar 2.059472370508471 3.901530744245866 -0.13020395544719915
Ar 1.8028747499184838 1.4728582798874872 2.2700459802079713
4
	Step: 68. Total Energy: -1.0410685200691274 kcal/mol.
Ar -0.4807146949215671 -0.5098752632054784 -0.17208070301689649
Ar 4.016383275704297 -0.36487438328089683 0.29369369271347867
Ar 2.059472370508471 3.901530744245866 -0.13020395544719915
Ar 1.8996219063006663 1.511013547870229 2.453316910178424
4
	Step: 69. Total Energy: -1.034596003988431 kcal/mol.
Ar -0.4807146949215671 -0.5098752632054784 -0.17208070301689649
Ar 4.016383275704297 -0.36487438328089683 0.29369369271347867
Ar 2.059472370508471 3.901530744245866 -0.13020395544719915
Ar 1.8787468990980642 1.5947403940270757 2.477523479498838
4
	Step: 70. Total Energy: -0.570064994793704 kcal/mol.
Ar -0.4807146949215671 -0.5098752632054784 -0.17208070301689649
Ar 4.016383275704297 -0.36487438328089683 0.29369369271347867
Ar 2.059472370508471 3.901530744245866 -0.13020395544719915
Ar 2.0172881520573136 1.681342513502596 2.3251467769987864
4
	Step: 71. Total Energy: -0.7254729403818176 kcal/mol.
Ar -0.4807146949215671 -0.5098752632054784 -0.17208070301689649
Ar 4.016383275704297 -0.36487438328089683 0.29369369271347867
Ar 2.1453872189952694 4.071356696965436 -0.06029768224767773
Ar 2.0172881520573136 1.681342513502596 2.3251467769987864
4
	Step: 73. Total Energy: -0.7940175665400551 kcal/mol.
Ar -0.4807146949215671 -0.5098752632054784 -0.17208070301689649
Ar 3.998718153103375 -0.3227168727843728 0.12895105823107933
Ar 2.1453872189952694 4.071356696965436 -0.06029768224767773
Ar 2.0172881520573136 1.681342513502596 2.3251467769987864
4
	Step: 74. Total Energy: -0.8668613071299202 kcal/mol.
Ar -0.4807146949215671 -0.5098752632054784 -0.17208070301689649
Ar 3.998718153103375 -0.3227168727843728 0.12895105823107933
Ar 2.146142627375248 3.9254635480921864 -0.2252035624937949
Ar 2.0172881520573136 1.681342513502596 2.3251467769987864
4
	Step: 75. Total Energy: -0.7954903788197409 kcal/mol.
Ar -0.6572656666578427 -0.6889284916940546 -0.003031664424606284
Ar 3.998718153103375 -0.3227168727843728 0.12895105823107933
Ar 2.146142627375248 3.9254635480921864 -0.2252035624937949
Ar 2.0172881520573136 1.681342513502596 2.3251467769987864
4
	Step: 76. Total Energy: -1.0006554089766921 kcal/mol.
Ar -0.6572656666578427 -0.6889284916940546 -0.003031664424606284
Ar 3.998718153103375 -0.3227168727843728 0.12895105823107933
Ar 2.146142627375248 3.9254635480921864 -0.2252035624937949
Ar 1.9122737587153642 1.699750147529293 2.459806186223285
4
	Step: 77. Total Energy: -0.9697171280577317 kcal/mol.
Ar -0.7779031996635302 -0.7712733030238369 0.18203847536499096
Ar 3.998718153103375 -0.3227168727843728 0.12895105823107933
Ar 2.146142627375248 3.9254635480921864 -0.2252035624937949
Ar 1.9122737587153642 1.699750147529293 2.459806186223285
4
	Step: 78. Total Energy: -0.9275251506894553 kcal/mol.
Ar -0.9618559693478449 -0.7659801824632128 0.2675288807269747
Ar 3.998718153103375 -0.3227168727843728 0.12895105823107933
Ar 2.146142627375248 3.9254635480921864 -0.2252035624937949
Ar 1.9122737587153642 1.699750147529293 2.459806186223285
4
	Step: 79. Total Energy: -0.8870753002594238 kcal/mol.
Ar -0.9618559693478449 -0.7659801824632128 0.2675288807269747
Ar 3.998718153103375 -0.3227168727843728 0.12895105823107933
Ar 2.02381351332576 3.7552268938969733 -0.3024952370164648
Ar 1.9122737587153642 1.699750147529293 2.459806186223285
4
	Step: 80. Total Energy: -1.038748618823789 kcal/mol.
Ar -0.9618559693478449 -0.7659801824632128 0.2675288807269747
Ar 3.998718153103375 -0.3227168727843728 0.12895105823107933
Ar 1.9810532539658758 3.8937368072312184 -0.4757905835901629
Ar 1.9122737587153642 1.699750147529293 2.459806186223285
4
	Step: 81. Total Energy: -1.049691430202199 kcal/mol.
Ar -0.9618559693478449 -0.7659801824632128 0.2675288807269747
Ar 4.110881835922123 -0.12590838973560253 0.03044319681658507
Ar 1.9810532539658758 3.8937368072312184 -0.4757905835901629
Ar 1.9122737587153642 1.699750147529293 2.459806186223285
4
	Step: 82. Total Energy: -1.0316915257819637 kcal/mol.
Ar -0.9618559693478449 -0.7659801824632128 0.2675288807269747
Ar 4.110881835922123 -0.12590838973560253 0.03044319681658507
Ar 1.9810532539658758 3.8937368072312184 -0.4757905835901629
Ar 2.105258799799088 1.6058581289218465 2.5865979086266244
4
	Step: 83. Total Energy: -1.048401786296706 kcal/mol.
Ar -0.8536686176794139 -0.7422587904782609 0.09848935432215655
Ar 4.110881835922123 -0.12590838973560253 0.03044319681658507
Ar 1.9810532539658758 3.8937368072312184 -0.4757905835901629
Ar 2.105258799799088 1.6058581289218465 2.5865979086266244
4
	Step: 84. Total Energy: -1.0518302763947998 kcal/mol.
Ar -0.8536686176794139 -0.7422587904782609 0.09848935432215655
Ar 4.110881835922123 -0.12590838973560253 0.03044319681658507
Ar 1.9810532539658758 3.8937368072312184 -0.4757905835901629
Ar 2.0559882772675953 1.576984884363324 2.516540598537306
4
	Step: 85. Total Energy: -1.018252393472062 kcal/mol.
Ar -0.999863269637922 -0.6253316925549749 -0.060251008320590466
Ar 4.110881835922123 -0.12590838973560253 0.03044319681658507
Ar 1.9810532539658758 3.8937368072312184 -0.4757905835901629
Ar 2.0559882772675953 1.576984884363324 2.516540598537306
4
	Step: 86. Total Energy: -1.0126888104111216 kcal/mol.
Ar -0.999863269637922 -0.6253316925549749 -0.060251008320590466
Ar 4.110881835922123 -0.12590838973560253 0.03044319681658507
Ar 1.9810532539658758 3.8937368072312184 -0.4757905835901629
Ar 1.9217336903311697 1.5337904157938744 2.3455802827478753
4
	Step: 87. Total Energy: -1.0137552314563028 kcal/mol.
Ar -0.999863269637922 -0.6253316925549749 -0.060251008320590466
Ar 4.110881835922123 -0.12590838973560253 0.03044319681658507
Ar 1.9345125335004103 3.9186414912088137 -0.5024511297237949
Ar 1.9217336903311697 1.5337904157938744 2.3455802827478753
4
	Step: 88. Total Energy: -0.9913241971065956 kcal/mol.
Ar -0.999863269637922 -0.6253316925549749 -0.060251008320590466
Ar 4.110881835922123 -0.12590838973560253 0.03044319681658507
Ar 1.9345125335004103 3.9186414912088137 -0.5024511297237949
Ar 1.7426730188092991 1.5945359911431638 2.172103863600285
4
	Step: 89. Total Energy: -0.9656471280471406 kcal/mol.
Ar -1.1760102844558369 -0.6134633653880734 0.11867295903141126
Ar 4.110881835922123 -0.12590838973560253 0.03044319681658507
Ar 1.9345125335004103 3.9186414912088137 -0.5024511297237949
Ar 1.7426730188092991 1.5945359911431638 2.172103863600285
4
	Step: 90. Total Energy: -0.9097968872988774 kcal/mol.
Ar -1.1760102844558369 -0.6134633653880734 0.11867295903141126
Ar 4.203945952691818 -0.008354928057028088 0.19124850087347167
Ar 1.9345125335004103 3.9186414912088137 -0.5024511297237949
Ar 1.7426730188092991 1.5945359911431638 2.172103863600285
4
	Step: 91. Total Energy: -0.9436904309221179 kcal/mol.
Ar -1.1760102844558369 -0.6134633653880734 0.11867295903141126
Ar 4.203945952691818 -0.008354928057028088 0.19124850087347167
Ar 1.9966352714922224 3.731418315486599 -0.6469093124335232
Ar 1.7426730188092991 1.5945359911431638 2.172103863600285
4
	Step: 92. Total Energy: -1.0003972406482704 kcal/mol.
Ar -1.1760102844558369 -0.6134633653880734 0.11867295903141126
Ar 4.203945952691818 -0.008354928057028088 0.19124850087347167
Ar 2.1848467323662306 3.7726274004657085 -0.715861255357765
Ar 1.7426730188092991 1.5945359911431638 2.172103863600285
4
	Step: 93. Total Energy: -1.059753154649078 kcal/mol.
Ar -1.1760102844558369 -0.6134633653880734 0.11867295903141126
Ar 4.309697317805939 -0.10276621872614006 0.054955378451071235
Ar 2.1848467323662306 3.7726274004657085 -0.715861255357765
Ar 1.7426730188092991 1.5945359911431638 2.172103863600285
4
	Step: 94. Total Energy: -1.0358215665417938 kcal/mol.
Ar -1.3652257350031192 -0.5543264882480832 0.24768779458582305
Ar 4.309697317805939 -0.10276621872614006 0.054955378451071235
Ar 2.1848467323662306 3.7726274004657085 -0.715861255357765
Ar 1.7426730188092991 1.5945359911431638 2.172103863600285
4
	Step: 95. Total Energy: -0.9962319119978518 kcal/mol.
Ar -1.3652257350031192 -0.5543264882480832 0.24768779458582305
Ar 4.205454774389209 0.0845071720090883 0.11567588811503432
Ar 2.1848467323662306 3.7726274004657085 -0.715861255357765
Ar 1.7426730188092991 1.5945359911431638 2.172103863600285
4
	Step: 96. Total Energy: -1.0312506898133802 kcal/mol.
Ar -1.3652257350031192 -0.5543264882480832 0.24768779458582305
Ar 4.058084560896351 -0.051886665099285745 -0.02176328148577522
Ar 2.1848467323662306 3.7726274004657085 -0.715861255357765
Ar 1.7426730188092991 1.5945359911431638 2.172103863600285
4
	Step: 97. Total Energy: -0.9083788150061431 kcal/mol.
Ar -1.3652257350031192 -0.5543264882480832 0.24768779458582305
Ar 4.058084560896351 -0.051886665099285745 -0.02176328148577522
Ar 2.1848467323662306 3.7726274004657085 -0.715861255357765
Ar 1.9017715330373346 1.473443587394773 2.209124631928525
4
	Step: 98. Total Energy: -0.9093599330361996 kcal/mol.
Ar -1.3652257350031192 -0.5543264882480832 0.24768779458582305
Ar 4.058084560896351 -0.051886665099285745 -0.02176328148577522
Ar 2.3523126524940756 3.83294099787549 -0.7408431668017548
Ar 1.9017715330373346 1.473443587394773 2.209124631928525
4
	Step: 99. Total Energy: -0.8657374741411821 kcal/mol.
Ar -1.3652257350031192 -0.5543264882480832 0.24768779458582305
Ar 4.058084560896351 -0.051886665099285745 -0.02176328148577522
Ar 2.1553490390832875 4.02421613216461 -0.5763369447183864
Ar 1.9017715330373346 1.473443587394773 2.209124631928525
4
	Step: 100. Total Energy: -0.9715619023505697 kcal/mol.
Ar -1.3652257350031192 -0.5543264882480832 0.24768779458582305
Ar 4.154785979346417 -0.0894548748345215 -0.08903571285922826
Ar 2.1553490390832875 4.02421613216461 -0.5763369447183864
Ar 1.9017715330373346 1.473443587394773 2.209124631928525
4
	Step: 101. Total Energy: -0.9764144600220104 kcal/mol.
Ar -1.3652257350031192 -0.5543264882480832 0.24768779458582305
Ar 4.154785979346417 -0.0894548748345215 -0.08903571285922826
Ar 2.1553490390832875 4.02421613216461 -0.5763369447183864
Ar 2.0196298526834044 1.588580566109571 2.3979358065704477
4
	Step: 102. Total Energy: -0.9868691140524064 kcal/mol.
Ar -1.3276316464199511 -0.4432114753097614 0.10305831777272104
Ar 4.154785979346417 -0.0894548748345215 -0.08903571285922826
Ar 2.1553490390832875 4.02421613216461 -0.5763369447183864
Ar 2.0196298526834044 1.588580566109571 2.3979358065704477
4
	Step: 103. Total Energy: -0.9964474956442129 kcal/mol.
Ar -1.2747448434762125 -0.5389044637377169 0.22623991599608814
Ar 4.154785979346417 -0.0894548748345215 -0.08903571285922826
Ar 2.1553490390832875 4.02421613216461 -0.5763369447183864
Ar 2.0196298526834044 1.588580566109571 2.3979358065704477
4
	Step: 104. Total Energy: -1.0062679845861782 kcal/mol.
Ar -1.2285655309506234 -0.517144470569728 0.18207987540920492
Ar 4.154785979346417 -0.0894548748345215 -0.08903571285922826
Ar 2.1553490390832875 4.02421613216461 -0.5763369447183864
Ar 2.0196298526834044 1.588580566109571 2.3979358065704477
4
	Step: 105. Total Energy: -1.0361281387313752 kcal/mol.
Ar -1.2285655309506234 -0.517144470569728 0.18207987540920492
Ar 4.0152337404267415 -0.12888623844840277 -0.28407954088085136
Ar 2.1553490390832875 4.02421613216461 -0.5763369447183864
Ar 2.0196298526834044 1.588580566109571 2.3979358065704477
4
	Step: 106. Total Energy: -1.0432732977258856 kcal/mol.
Ar -1.2285655309506234 -0.517144470569728 0.18207987540920492
Ar 4.0152337404267415 -0.12888623844840277 -0.28407954088085136
Ar 2.1553490390832875 4.02421613216461 -0.5763369447183864
Ar 1.8604081646957116 1.5591755938388205 2.4824857101615647
4
	Step: 107. Total Energy: -1.0036098377548412 kcal/mol.
Ar -1.2285655309506234 -0.517144470569728 0.18207987540920492
Ar 4.0152337404267415 -0.12888623844840277 -0.28407954088085136
Ar 2.328870845259061 4.120214848288327 -0.6844922859279858
Ar 1.8604081646957116 1.5591755938388205 2.4824857101615647
4
	Step: 108. Total Energy: -1.069386460893147 kcal/mol.
Ar -1.0429902030324574 -0.4154718356808292 0.2376915855127744
Ar 4.0152337404267415 -0.12888623844840277 -0.28407954088085136
Ar 2.328870845259061 4.120214848288327 -0.6844922859279858
Ar 1.8604081646957116 1.5591755938388205 2.4824857101615647
4
	Step: 109. Total Energy: -1.0873226715162017 kcal/mol.
Ar -0.94717670883887 -0.5279637898567794 0.3379278695247764
Ar 4.0152337404267415 -0.12888623844840277 -0.28407954088085136
Ar 2.328870845259061 4.120214848288327 -0.6844922859279858
Ar 1.8604081646957116 1.5591755938388205 2.4824857101615647
4
	Step: 110. Total Energy: -1.1012209930046992 kcal/mol.
Ar -0.94717670883887 -0.5279637898567794 0.3379278695247764
Ar 4.0152337404267415 -0.12888623844840277 -0.28407954088085136
Ar 2.328870845259061 4.120214848288327 -0.6844922859279858
Ar 1.983640372364904 1.7520434138707277 2.3447436477403927
4
	Step: 111. Total Energy: -1.1144965361696977 kcal/mol.
Ar -0.94717670883887 -0.5279637898567794 0.3379278695247764
Ar 4.0152337404267415 -0.12888623844840277 -0.28407954088085136
Ar 2.328870845259061 4.120214848288327 -0.6844922859279858
Ar 1.7844925927691488 1.6972182144654533 2.383497460724475
4
	Step: 112. Total Energy: -1.1033862703084123 kcal/mol.
Ar -0.94717670883887 -0.5279637898567794 0.3379278695247764
Ar 4.0225551492140506 -0.2120979321511178 -0.19138553108416417
Ar 2.328870845259061 4.120214848288327 -0.6844922859279858
Ar 1.7844925927691488 1.6972182144654533 2.383497460724475
4
	Step: 113. Total Energy: -1.1060362601228633 kcal/mol.
Ar -0.94717670883887 -0.5279637898567794 0.3379278695247764
Ar 4.0225551492140506 -0.2120979321511178 -0.19138553108416417
Ar 2.328870845259061 4.120214848288327 -0.6844922859279858
Ar 1.9241619870890503 1.7341947665754809 2.234322826278907
4
	Step: 114. Total Energy: -0.9687143015413697 kcal/mol.
Ar -0.94717670883887 -0.5279637898567794 0.3379278695247764
Ar 4.0225551492140506 -0.2120979321511178 -0.19138553108416417
Ar 2.328870845259061 4.120214848288327 -0.6844922859279858
Ar 2.1185344450922683 1.7105043585250788 2.06508132272942
4
	Step: 115. Total Energy: -0.9616031548209886 kcal/mol.
Ar -0.9796963399831238 -0.5624149132895035 0.456355343995049
Ar 4.0225551492140506 -0.2120979321511178 -0.19138553108416417
Ar 2.328870845259061 4.120214848288327 -0.6844922859279858
Ar 2.1185344450922683 1.7105043585250788 2.06508132272942
4
	Step: 116. Total Energy: -0.9250179659958876 kcal/mol.
Ar -1.1796584724751884 -0.41646646290159417 0.3930650501091058
Ar 4.0225551492140506 -0.2120979321511178 -0.19138553108416417
Ar 2.328870845259061 4.120214848288327 -0.6844922859279858
Ar 2.1185344450922683 1.7105043585250788 2.06508132272942
4
	Step: 117. Total Energy: -0.9111942510273766 kcal/mol.
Ar -1.1725989134611587 -0.5891708818115943 0.5382800576751833
Ar 4.0225551492140506 -0.2120979321511178 -0.19138553108416417
Ar 2.328870845259061 4.120214848288327 -0.6844922859279858
Ar 2.1185344450922683 1.7105043585250788 2.06508132272942
4
	Step: 118. Total Energy: -0.8692036706826246 kcal/mol.
Ar -1.242466253694392 -0.7282976669159359 0.42549208989760096
Ar 4.0225551492140506 -0.2120979321511178 -0.19138553108416417
Ar 2.328870845259061 4.120214848288327 -0.6844922859279858
Ar 2.1185344450922683 1.7105043585250788 2.06508132272942
4
	Step: 120. Total Energy: -0.5356963220410704 kcal/mol.
Ar -1.242466253694392 -0.7282976669159359 0.42549208989760096
Ar 4.0225551492140506 -0.2120979321511178 -0.19138553108416417
Ar 2.328870845259061 4.120214848288327 -0.6844922859279858
Ar 2.2667509241776185 1.5488892017992302 2.024268721625307
4
	Step: 121. Total Energy: -0.510119714252832 kcal/mol.
Ar -1.290019527397734 -0.8164619430326816 0.3385091650780098
Ar 4.0225551492140506 -0.2120979321511178 -0.19138553108416417
Ar 2.328870845259061 4.120214848288327 -0.6844922859279858
Ar 2.2667509241776185 1.5488892017992302 2.024268721625307
4
	Step: 122. Total Energy: -0.5625448330027667 kcal/mol.
Ar -1.1025029060174942 -0.7498069134842745 0.34387898695498853
Ar 4.0225551492140506 -0.2120979321511178 -0.19138553108416417